 Gaussian 09, Revision E.01,
 Gaussian 09:  ES64L-G09RevE.01 30-Nov-2015

 ----------------------------------------------------------------------
 #rhf/gen scf(tight,novaracc,noincfock,fulldiag) stable(crhf) guess=rea
 d geom=nocrowd test
 ----------------------------------------------------------------------

 hf stability analysis of h10 triangular lattice, y= -1.203317820633023
 3
 ----------------------------------------------------------------------
 Symbolic Z-matrix:
 Charge =  0 Multiplicity = 1

                         Standard orientation:
 ---------------------------------------------------------------------
 Center     Atomic      Atomic             Coordinates (Angstroms)
 Number     Number       Type             X           Y           Z
 ---------------------------------------------------------------------
      1          1           0        0.000000    0.636043    0.000000
      2          1           0        0.000000   -1.128357    0.000000
      3          1           0        1.760102    0.759122    0.000000
      4          1           0       -1.760102   -1.005278    0.000000
      5          1           0        3.520204    0.882200    0.000000
      6          1           0       -3.520204   -0.882200    0.000000
      7          1           0        5.280306    1.005278    0.000000
      8          1           0       -5.280306   -0.759122    0.000000
      9          1           0        7.040408    1.128357    0.000000
     10          1           0       -7.040408   -0.636043    0.000000
 ---------------------------------------------------------------------

 SCF Done:  E(RHF) =  -4.76156155999     A.U. after    9 cycles
 E2 =    -0.1759954295D+00 EUMP2 =    -0.49375569895012D+01

 The electronic state is 1-A'.
 Alpha  occ. eigenvalues --   -0.49899  -0.44978  -0.42281  -0.36883  -0.31268
 Alpha virt. eigenvalues --   -0.07775   0.00108   0.03527   0.13898   0.14391

 Mulliken charges:
               1
     1  H    0.051154
     2  H    0.049910
     3  H   -0.001431
     4  H    0.003830
     5  H   -0.030591
     6  H   -0.048699
     7  H   -0.006283
     8  H   -0.002932
     9  H   -0.002393
    10  H   -0.012567
 Sum of Mulliken charges =  -0.00000

 Dipole moment (field-independent basis, Debye):
    X=              0.5207    Y=             -0.0554    Z=              0.0000  Tot=              0.5237
 Quadrupole moment (field-independent basis, Debye-Ang):
   XX=            -19.1840   YY=            -13.6054   ZZ=            -14.6370
   XY=             -1.9868   XZ=              0.0000   YZ=              0.0000

 Normal termination of Gaussian 09 at Fri Feb 10 11:21:03 2017.
