 Gaussian 09, Revision E.01,
 Gaussian 09:  ES64L-G09RevE.01 30-Nov-2015

 ----------------------------------------------------------------------
 #rhf/gen scf(tight,novaracc,noincfock,fulldiag) stable(crhf) guess=rea
 d geom=nocrowd test
 ----------------------------------------------------------------------

 ----------------------------------------------------------------------
 hf stability analysis of h10 triangular lattice, y= 1.5990894829876983
 ----------------------------------------------------------------------
 Symbolic Z-matrix:
 Charge =  0 Multiplicity = 1

                         Standard orientation:
 ---------------------------------------------------------------------
 Center     Atomic      Atomic             Coordinates (Angstroms)
 Number     Number       Type             X           Y           Z
 ---------------------------------------------------------------------
      1          1           0        2.703218    3.150469    0.000000
      2          1           0        2.703218    1.386069    0.000000
      3          1           0        1.351609    2.016334    0.000000
      4          1           0        1.351609    0.251934    0.000000
      5          1           0       -0.000000    0.882200    0.000000
      6          1           0       -0.000000   -0.882200    0.000000
      7          1           0       -1.351609   -0.251934   -0.000000
      8          1           0       -1.351609   -2.016334   -0.000000
      9          1           0       -2.703218   -1.386069   -0.000000
     10          1           0       -2.703218   -3.150469   -0.000000
 ---------------------------------------------------------------------

 SCF Done:  E(RHF) =  -4.63159021312     A.U. after   13 cycles
 E2 =    -0.2028969513D+00 EUMP2 =    -0.48344871644545D+01

 The electronic state is 1-AG.
 Alpha  occ. eigenvalues --   -0.60521  -0.54861  -0.44210  -0.30500  -0.18155
 Alpha virt. eigenvalues --   -0.07086   0.03707   0.04096   0.11733   0.17470

 Mulliken charges:
               1
     1  H   -0.174523
     2  H    0.038181
     3  H    0.179164
     4  H   -0.098524
     5  H    0.055702
     6  H    0.055702
     7  H   -0.098524
     8  H    0.179164
     9  H    0.038181
    10  H   -0.174523
 Sum of Mulliken charges =  -0.00000

 Dipole moment (field-independent basis, Debye):
    X=              0.0000    Y=              0.0000    Z=              0.0000  Tot=              0.0000
 Quadrupole moment (field-independent basis, Debye-Ang):
   XX=            -20.8272   YY=            -22.5502   ZZ=            -13.9584
   XY=             -9.3681   XZ=             -0.0000   YZ=             -0.0000

 Normal termination of Gaussian 09 at Fri Feb 10 11:18:41 2017.
