 Gaussian 09, Revision E.01,
 Gaussian 09:  ES64L-G09RevE.01 30-Nov-2015

 ----------------------------------------------------------------------
 #rhf/gen scf(tight,novaracc,noincfock,fulldiag) stable(crhf) guess=rea
 d geom=nocrowd test
 ----------------------------------------------------------------------

 hf stability analysis of h10 triangular lattice, y= -1.760102004659399
 6
 ----------------------------------------------------------------------
 Symbolic Z-matrix:
 Charge =  0 Multiplicity = 1

                         Standard orientation:
 ---------------------------------------------------------------------
 Center     Atomic      Atomic             Coordinates (Angstroms)
 Number     Number       Type             X           Y           Z
 ---------------------------------------------------------------------
      1          1           0       -1.195185    4.210305   -0.000000
      2          1           0       -0.713360    2.512968   -0.000000
      3          1           0       -0.954273    2.462429   -0.000000
      4          1           0        0.000000    0.899207   -0.000000
      5          1           0       -0.713360    0.714554   -0.000000
      6          1           0        0.713360   -0.714554    0.000000
      7          1           0       -0.472447   -1.033321    0.000000
      8          1           0        1.426720   -2.328315    0.000000
      9          1           0       -0.231535   -2.781197    0.000000
     10          1           0        2.140080   -3.942076    0.000000
 ---------------------------------------------------------------------

 SCF Done:  E(RHF) =  -3.87161251372     A.U. after   15 cycles
 E2 =    -0.4093181203D+00 EUMP2 =    -0.42809306340607D+01

 The electronic state is 1-A'.
 Alpha  occ. eigenvalues --   -0.83667  -0.65791  -0.52175  -0.38232  -0.20077
 Alpha virt. eigenvalues --   -0.11846   0.02369   0.18475   0.43716   1.04695

 Mulliken charges:
               1
     1  H   -0.037079
     2  H   -0.013236
     3  H    0.001528
     4  H    0.009134
     5  H    0.004794
     6  H   -0.000518
     7  H    0.033515
     8  H    0.041510
     9  H   -0.012705
    10  H   -0.026943
 Sum of Mulliken charges =   0.00000

 Dipole moment (field-independent basis, Debye):
    X=              0.1786    Y=             -0.7845    Z=              0.0000  Tot=              0.8046
 Quadrupole moment (field-independent basis, Debye-Ang):
   XX=            -12.7008   YY=            -20.3759   ZZ=            -13.4494
   XY=              2.3568   XZ=             -0.0000   YZ=              0.0000

 Normal termination of Gaussian 09 at Fri Feb 10 11:19:39 2017.
