 Gaussian 09, Revision E.01,
 Gaussian 09:  ES64L-G09RevE.01 30-Nov-2015

 ----------------------------------------------------------------------
 #rhf/gen scf(tight,novaracc,noincfock,fulldiag) stable(crhf) guess=rea
 d geom=nocrowd test
 ----------------------------------------------------------------------

 hf stability analysis of h10 triangular lattice, y= -1.225655145003472
 7
 ----------------------------------------------------------------------
 Symbolic Z-matrix:
 Charge =  0 Multiplicity = 1

                         Standard orientation:
 ---------------------------------------------------------------------
 Center     Atomic      Atomic             Coordinates (Angstroms)
 Number     Number       Type             X           Y           Z
 ---------------------------------------------------------------------
      1          1           0       -0.000000    0.759047    0.000000
      2          1           0        0.000000   -1.005353   -0.000000
      3          1           0        1.763325    0.820623    0.000000
      4          1           0       -1.763325   -0.943777   -0.000000
      5          1           0        3.526650    0.882200    0.000000
      6          1           0       -3.526650   -0.882200   -0.000000
      7          1           0        5.289976    0.943777    0.000000
      8          1           0       -5.289976   -0.820623   -0.000000
      9          1           0        7.053301    1.005353    0.000000
     10          1           0       -7.053301   -0.759047   -0.000000
 ---------------------------------------------------------------------

 SCF Done:  E(RHF) =  -4.76166397523     A.U. after    9 cycles
 E2 =    -0.1760099999D+00 EUMP2 =    -0.49376739751490D+01

 The electronic state is 1-A'.
 Alpha  occ. eigenvalues --   -0.49873  -0.44966  -0.42299  -0.36878  -0.31288
 Alpha virt. eigenvalues --   -0.07767   0.00084   0.03555   0.13932   0.14348

 Mulliken charges:
               1
     1  H    0.050378
     2  H    0.049762
     3  H   -0.000008
     4  H    0.002622
     5  H   -0.034873
     6  H   -0.043904
     7  H   -0.005479
     8  H   -0.003808
     9  H   -0.004808
    10  H   -0.009883
 Sum of Mulliken charges =  -0.00000

 Dipole moment (field-independent basis, Debye):
    X=              0.2601    Y=             -0.0273    Z=              0.0000  Tot=              0.2616
 Quadrupole moment (field-independent basis, Debye-Ang):
   XX=            -19.1075   YY=            -13.6602   ZZ=            -14.6374
   XY=             -2.0376   XZ=             -0.0000   YZ=             -0.0000

 Normal termination of Gaussian 09 at Fri Feb 10 11:21:01 2017.
