 Gaussian 09, Revision E.01,
 Gaussian 09:  ES64L-G09RevE.01 30-Nov-2015

 ----------------------------------------------------------------------
 #rhf/gen scf(tight,novaracc,noincfock,fulldiag) stable(crhf) guess=rea
 d geom=nocrowd test
 ----------------------------------------------------------------------

 ----------------------------------------------------------------------
 hf stability analysis of h10 triangular lattice, y= 1.7576859316614712
 ----------------------------------------------------------------------
 Symbolic Z-matrix:
 Charge =  0 Multiplicity = 1

                         Standard orientation:
 ---------------------------------------------------------------------
 Center     Atomic      Atomic             Coordinates (Angstroms)
 Number     Number       Type             X           Y           Z
 ---------------------------------------------------------------------
      1          1           0        0.612770    4.357390   -0.000000
      2          1           0        0.612770    2.592990   -0.000000
      3          1           0        0.306385    2.619795   -0.000000
      4          1           0        0.306385    0.855395   -0.000000
      5          1           0        0.000000    0.882200   -0.000000
      6          1           0       -0.000000   -0.882200   -0.000000
      7          1           0       -0.306385   -0.855395   -0.000000
      8          1           0       -0.306385   -2.619795   -0.000000
      9          1           0       -0.612770   -2.592990   -0.000000
     10          1           0       -0.612770   -4.357390   -0.000000
 ---------------------------------------------------------------------

 SCF Done:  E(RHF) =  -2.61127949139     A.U. after    6 cycles
 E2 =    -0.7109592809D+00 EUMP2 =    -0.33222387722656D+01

 The electronic state is 1-AG.
 Alpha  occ. eigenvalues --   -0.85583  -0.82948  -0.79025  -0.75015  -0.20088
 Alpha virt. eigenvalues --   -0.14027   0.65898   0.78837   0.98509   1.18329

 Mulliken charges:
               1
     1  H    0.007838
     2  H    0.002023
     3  H   -0.010495
     4  H   -0.000140
     5  H    0.000774
     6  H    0.000774
     7  H   -0.000140
     8  H   -0.010495
     9  H    0.002023
    10  H    0.007838
 Sum of Mulliken charges =  -0.00000

 Dipole moment (field-independent basis, Debye):
    X=              0.0000    Y=             -0.0000    Z=             -0.0000  Tot=              0.0000
 Quadrupole moment (field-independent basis, Debye-Ang):
   XX=            -12.4691   YY=            -16.4453   ZZ=            -12.7404
   XY=             -0.5540   XZ=              0.0000   YZ=              0.0000

 Normal termination of Gaussian 09 at Fri Feb 10 11:19:20 2017.
