 Gaussian 09, Revision E.01,
 Gaussian 09:  ES64L-G09RevE.01 30-Nov-2015

 ----------------------------------------------------------------------
 #rhf/gen scf(tight,novaracc,noincfock,fulldiag) stable(crhf) guess=rea
 d geom=nocrowd test
 ----------------------------------------------------------------------

 ----------------------------------------------------------------------
 hf stability analysis of h10 triangular lattice, y= 1.7633251778242791
 ----------------------------------------------------------------------
 Symbolic Z-matrix:
 Charge =  0 Multiplicity = 1

                         Standard orientation:
 ---------------------------------------------------------------------
 Center     Atomic      Atomic             Coordinates (Angstroms)
 Number     Number       Type             X           Y           Z
 ---------------------------------------------------------------------
      1          1           0        0.246157    4.402404    0.000000
      2          1           0        0.246157    2.638004    0.000000
      3          1           0        0.123078    2.642302    0.000000
      4          1           0        0.123078    0.877902    0.000000
      5          1           0        0.000000    0.882200    0.000000
      6          1           0       -0.000000   -0.882200    0.000000
      7          1           0       -0.123078   -0.877902   -0.000000
      8          1           0       -0.123078   -2.642302   -0.000000
      9          1           0       -0.246157   -2.638004   -0.000000
     10          1           0       -0.246157   -4.402404   -0.000000
 ---------------------------------------------------------------------

 SCF Done:  E(RHF) =   7.05733495234     A.U. after    5 cycles
 E2 =    -0.7200636057D+00 EUMP2 =     0.63372713466292D+01

 The electronic state is 1-AG.
 Alpha  occ. eigenvalues --   -0.90828  -0.89070  -0.86741  -0.84785  -0.20567
 Alpha virt. eigenvalues --   -0.14566   0.97029   1.14344   1.40671   1.67243

 Mulliken charges:
               1
     1  H    0.014300
     2  H   -0.000467
     3  H   -0.013980
     4  H   -0.000128
     5  H    0.000275
     6  H    0.000275
     7  H   -0.000128
     8  H   -0.013980
     9  H   -0.000467
    10  H    0.014300
 Sum of Mulliken charges =  -0.00000

 Dipole moment (field-independent basis, Debye):
    X=              0.0000    Y=             -0.0000    Z=             -0.0000  Tot=              0.0000
 Quadrupole moment (field-independent basis, Debye-Ang):
   XX=            -12.5882   YY=            -15.6226   ZZ=            -12.6355
   XY=             -0.1721   XZ=              0.0000   YZ=             -0.0000

 Normal termination of Gaussian 09 at Fri Feb 10 11:19:26 2017.
