 Gaussian 09, Revision E.01,
 Gaussian 09:  ES64L-G09RevE.01 30-Nov-2015

 ----------------------------------------------------------------------
 #rhf/gen scf(tight,novaracc,noincfock,fulldiag) stable(crhf) guess=rea
 d geom=nocrowd test
 ----------------------------------------------------------------------

 hf stability analysis of h10 triangular lattice, y= -1.479750292676143
 9
 ----------------------------------------------------------------------
 Symbolic Z-matrix:
 Charge =  0 Multiplicity = 1

                         Standard orientation:
 ---------------------------------------------------------------------
 Center     Atomic      Atomic             Coordinates (Angstroms)
 Number     Number       Type             X           Y           Z
 ---------------------------------------------------------------------
      1          1           0       -0.000000    2.317492    0.000000
      2          1           0       -0.000000    0.553092    0.000000
      3          1           0        1.611860    1.599846   -0.000000
      4          1           0       -1.611860   -0.164554    0.000000
      5          1           0        3.223719    0.882200   -0.000000
      6          1           0       -3.223719   -0.882200    0.000000
      7          1           0        4.835579    0.164554   -0.000000
      8          1           0       -4.835579   -1.599846    0.000000
      9          1           0        6.447438   -0.553092   -0.000000
     10          1           0       -6.447438   -2.317492    0.000000
 ---------------------------------------------------------------------

 SCF Done:  E(RHF) =  -4.75677897305     A.U. after   11 cycles
 E2 =    -0.1751919791D+00 EUMP2 =    -0.49319709521110D+01

 The electronic state is 1-A'.
 Alpha  occ. eigenvalues --   -0.51289  -0.45558  -0.41429  -0.37118  -0.30312
 Alpha virt. eigenvalues --   -0.08189   0.01040   0.02444   0.13139   0.15717

 Mulliken charges:
               1
     1  H    0.064913
     2  H    0.078941
     3  H    0.012239
     4  H   -0.020386
     5  H   -0.111930
     6  H    0.009585
     7  H    0.007963
     8  H   -0.014088
     9  H   -0.047625
    10  H    0.020388
 Sum of Mulliken charges =  -0.00000

 Dipole moment (field-independent basis, Debye):
    X=             -3.2231    Y=              0.5417    Z=              0.0000  Tot=              3.2683
 Quadrupole moment (field-independent basis, Debye-Ang):
   XX=            -22.0274   YY=            -10.9166   ZZ=            -14.6196
   XY=              0.4549   XZ=              0.0000   YZ=              0.0000

 Normal termination of Gaussian 09 at Fri Feb 10 11:20:34 2017.
