 Gaussian 09, Revision E.01,
 Gaussian 09:  ES64L-G09RevE.01 30-Nov-2015

 ----------------------------------------------------------------------
 #rhf/gen scf(tight,novaracc,noincfock,fulldiag) stable(crhf) guess=rea
 d geom=nocrowd test
 ----------------------------------------------------------------------

 hf stability analysis of h10 triangular lattice, y= -0.773461932782254
 17
 ----------------------------------------------------------------------
 Symbolic Z-matrix:
 Charge =  0 Multiplicity = 1

                         Standard orientation:
 ---------------------------------------------------------------------
 Center     Atomic      Atomic             Coordinates (Angstroms)
 Number     Number       Type             X           Y           Z
 ---------------------------------------------------------------------
      1          1           0        0.000000    1.290346    0.000000
      2          1           0        0.000000    3.054746    0.000000
      3          1           0        1.390366    0.204073    0.000000
      4          1           0       -1.390366    1.968473    0.000000
      5          1           0        2.780732   -0.882200    0.000000
      6          1           0       -2.780732    0.882200    0.000000
      7          1           0        4.171099   -1.968473    0.000000
      8          1           0       -4.171099   -0.204073    0.000000
      9          1           0        5.561465   -3.054746    0.000000
     10          1           0       -5.561465   -1.290346    0.000000
 ---------------------------------------------------------------------

 SCF Done:  E(RHF) =  -4.75241707451     A.U. after   11 cycles
 E2 =    -0.1741858380D+00 EUMP2 =    -0.49266029125007D+01

 The electronic state is 1-A'.
 Alpha  occ. eigenvalues --   -0.53954  -0.46327  -0.40281  -0.37470  -0.28747
 Alpha virt. eigenvalues --   -0.08676  -0.00629   0.04166   0.12623   0.17687

 Mulliken charges:
               1
     1  H    0.117714
     2  H    0.058399
     3  H   -0.036554
     4  H    0.026259
     5  H    0.042389
     6  H   -0.164292
     7  H   -0.020171
     8  H    0.015436
     9  H    0.038514
    10  H   -0.077693
 Sum of Mulliken charges =   0.00000

 Dipole moment (field-independent basis, Debye):
    X=              4.7319    Y=              1.0151    Z=              0.0000  Tot=              4.8395
 Quadrupole moment (field-independent basis, Debye-Ang):
   XX=            -22.6754   YY=             -7.4658   ZZ=            -14.5890
   XY=             -4.2814   XZ=              0.0000   YZ=              0.0000

 Normal termination of Gaussian 09 at Fri Feb 10 11:21:38 2017.
