 Gaussian 09, Revision E.01,
 Gaussian 09:  ES64L-G09RevE.01 30-Nov-2015

 ----------------------------------------------------------------------
 #rhf/gen scf(tight,novaracc,noincfock,fulldiag) stable(crhf) guess=rea
 d geom=nocrowd test
 ----------------------------------------------------------------------

 ----------------------------------------------------------------------
 hf stability analysis of h10 triangular lattice, y= 1.5578727577833733
 ----------------------------------------------------------------------
 Symbolic Z-matrix:
 Charge =  0 Multiplicity = 1

                         Standard orientation:
 ---------------------------------------------------------------------
 Center     Atomic      Atomic             Coordinates (Angstroms)
 Number     Number       Type             X           Y           Z
 ---------------------------------------------------------------------
      1          1           0        2.925508    2.855480    0.000000
      2          1           0        2.925508    1.091080    0.000000
      3          1           0        1.462754    1.868840    0.000000
      4          1           0        1.462754    0.104440    0.000000
      5          1           0       -0.000000    0.882200    0.000000
      6          1           0       -0.000000   -0.882200   -0.000000
      7          1           0       -1.462754   -0.104440    0.000000
      8          1           0       -1.462754   -1.868840   -0.000000
      9          1           0       -2.925508   -1.091080    0.000000
     10          1           0       -2.925508   -2.855480   -0.000000
 ---------------------------------------------------------------------

 SCF Done:  E(RHF) =  -4.62339015086     A.U. after   13 cycles
 E2 =    -0.1982165744D+00 EUMP2 =    -0.48216067252300D+01

 The electronic state is 1-AG.
 Alpha  occ. eigenvalues --   -0.58236  -0.51343  -0.41210  -0.30561  -0.23669
 Alpha virt. eigenvalues --   -0.09428   0.03355   0.04898   0.12781   0.16486

 Mulliken charges:
               1
     1  H   -0.014466
     2  H   -0.040134
     3  H    0.096420
     4  H   -0.139401
     5  H    0.097580
     6  H    0.097580
     7  H   -0.139401
     8  H    0.096420
     9  H   -0.040134
    10  H   -0.014466
 Sum of Mulliken charges =  -0.00000

 Dipole moment (field-independent basis, Debye):
    X=              0.0000    Y=              0.0000    Z=             -0.0000  Tot=              0.0000
 Quadrupole moment (field-independent basis, Debye-Ang):
   XX=            -17.1120   YY=            -11.6639   ZZ=            -14.1037
   XY=              2.3924   XZ=              0.0000   YZ=              0.0000

 Normal termination of Gaussian 09 at Fri Feb 10 11:18:35 2017.
