 Gaussian 09, Revision E.01,
 Gaussian 09:  ES64L-G09RevE.01 30-Nov-2015

 ----------------------------------------------------------------------
 #rhf/gen scf(tight,novaracc,noincfock,fulldiag) stable(crhf) guess=rea
 d geom=nocrowd test
 ----------------------------------------------------------------------

 hf stability analysis of h10 triangular lattice, y= -1.668272944377351
 4
 ----------------------------------------------------------------------
 Symbolic Z-matrix:
 Charge =  0 Multiplicity = 1

                         Standard orientation:
 ---------------------------------------------------------------------
 Center     Atomic      Atomic             Coordinates (Angstroms)
 Number     Number       Type             X           Y           Z
 ---------------------------------------------------------------------
      1          1           0       -3.317836    1.552107   -0.000000
      2          1           0       -1.719666    0.804472   -0.000000
      3          1           0       -2.518751   -0.020970    0.000000
      4          1           0        0.000000    1.199259   -0.000000
      5          1           0       -1.719666   -1.594046    0.000000
      6          1           0        1.719666    1.594046   -0.000000
      7          1           0       -0.920581   -3.167123    0.000000
      8          1           0        3.439332    1.988834   -0.000000
      9          1           0       -0.121495   -4.740200    0.000000
     10          1           0        5.158997    2.383621   -0.000000
 ---------------------------------------------------------------------

 SCF Done:  E(RHF) =  -4.76355470832     A.U. after   12 cycles
 E2 =    -0.1919123828D+00 EUMP2 =    -0.49554670911064D+01

 The electronic state is 1-A'.
 Alpha  occ. eigenvalues --   -0.59462  -0.46393  -0.39893  -0.37700  -0.27091
 Alpha virt. eigenvalues --   -0.08261  -0.03370   0.07660   0.12392   0.22845

 Mulliken charges:
               1
     1  H   -0.005255
     2  H    0.109602
     3  H    0.069793
     4  H   -0.029670
     5  H   -0.149392
     6  H    0.051273
     7  H    0.009707
     8  H   -0.020743
     9  H   -0.077507
    10  H    0.042192
 Sum of Mulliken charges =  -0.00000

 Dipole moment (field-independent basis, Debye):
    X=              0.6967    Y=              3.6447    Z=             -0.0000  Tot=              3.7107
 Quadrupole moment (field-independent basis, Debye-Ang):
   XX=             -4.8199   YY=            -21.2791   ZZ=            -14.4964
   XY=             -0.2118   XZ=              0.0000   YZ=              0.0000

 Normal termination of Gaussian 09 at Fri Feb 10 11:20:11 2017.
