 Gaussian 09, Revision E.01,
 Gaussian 09:  ES64L-G09RevE.01 30-Nov-2015

 ----------------------------------------------------------------------
 #rhf/gen scf(tight,novaracc,noincfock,fulldiag) stable(crhf) guess=rea
 d geom=nocrowd test
 ----------------------------------------------------------------------

 hf stability analysis of h10 triangular lattice, y= -1.725843608561657
 1
 ----------------------------------------------------------------------
 Symbolic Z-matrix:
 Charge =  0 Multiplicity = 1

                         Standard orientation:
 ---------------------------------------------------------------------
 Center     Atomic      Atomic             Coordinates (Angstroms)
 Number     Number       Type             X           Y           Z
 ---------------------------------------------------------------------
      1          1           0       -2.879125    2.927322    0.000000
      2          1           0       -1.641904    1.669390    0.000000
      3          1           0       -2.260515    1.274921    0.000000
      4          1           0        0.000000    1.023435    0.000000
      5          1           0       -1.641904   -0.377480    0.000000
      6          1           0        1.641904    0.377480   -0.000000
      7          1           0       -1.023294   -2.029881   -0.000000
      8          1           0        3.283809   -0.268475   -0.000000
      9          1           0       -0.404684   -3.682282   -0.000000
     10          1           0        4.925713   -0.914430   -0.000000
 ---------------------------------------------------------------------

 SCF Done:  E(RHF) =  -4.75064437549     A.U. after   12 cycles
 E2 =    -0.2217347816D+00 EUMP2 =    -0.49723791571359D+01

 The electronic state is 1-A'.
 Alpha  occ. eigenvalues --   -0.69812  -0.44636  -0.41585  -0.35805  -0.27120
 Alpha virt. eigenvalues --   -0.09696  -0.02581   0.09871   0.12474   0.41563

 Mulliken charges:
               1
     1  H    0.032486
     2  H    0.044410
     3  H    0.038354
     4  H   -0.012239
     5  H   -0.040976
     6  H   -0.020088
     7  H   -0.002798
     8  H   -0.006553
     9  H   -0.027195
    10  H   -0.005401
 Sum of Mulliken charges =  -0.00000

 Dipole moment (field-independent basis, Debye):
    X=             -1.2157    Y=              1.5659    Z=              0.0000  Tot=              1.9824
 Quadrupole moment (field-independent basis, Debye-Ang):
   XX=            -11.0468   YY=            -12.5925   ZZ=            -14.2929
   XY=             -3.7514   XZ=             -0.0000   YZ=              0.0000

 Normal termination of Gaussian 09 at Fri Feb 10 11:19:56 2017.
