 Gaussian 09, Revision E.01,
 Gaussian 09:  ES64L-G09RevE.01 30-Nov-2015

 ----------------------------------------------------------------------
 #rhf/gen scf(tight,novaracc,noincfock,fulldiag) stable(crhf) guess=rea
 d geom=nocrowd test
 ----------------------------------------------------------------------

 hf stability analysis of h10 triangular lattice, y= -1.737594784534173
 9
 ----------------------------------------------------------------------
 Symbolic Z-matrix:
 Charge =  0 Multiplicity = 1

                         Standard orientation:
 ---------------------------------------------------------------------
 Center     Atomic      Atomic             Coordinates (Angstroms)
 Number     Number       Type             X           Y           Z
 ---------------------------------------------------------------------
      1          1           0       -2.577611    3.313713    0.000000
      2          1           0       -1.494302    1.921037    0.000000
      3          1           0       -2.035956    1.634512   -0.000000
      4          1           0       -0.000000    0.982863    0.000000
      5          1           0       -1.494302   -0.044689   -0.000000
      6          1           0        1.494302    0.044689    0.000000
      7          1           0       -0.952647   -1.723891   -0.000000
      8          1           0        2.988603   -0.893484    0.000000
      9          1           0       -0.410992   -3.403092   -0.000000
     10          1           0        4.482905   -1.831658    0.000000
 ---------------------------------------------------------------------

 SCF Done:  E(RHF) =  -4.70694513594     A.U. after   13 cycles
 E2 =    -0.2224682028D+00 EUMP2 =    -0.49294133387293D+01

 The electronic state is 1-A'.
 Alpha  occ. eigenvalues --   -0.73724  -0.45759  -0.41159  -0.35534  -0.26647
 Alpha virt. eigenvalues --   -0.10831  -0.01346   0.09115   0.14292   0.51122

 Mulliken charges:
               1
     1  H    0.053065
     2  H    0.024931
     3  H    0.020862
     4  H   -0.008417
     5  H    0.000028
     6  H   -0.050242
     7  H   -0.001595
     8  H   -0.002216
     9  H   -0.008116
    10  H   -0.028300
 Sum of Mulliken charges =   0.00000

 Dipole moment (field-independent basis, Debye):
    X=             -2.0186    Y=              1.5923    Z=             -0.0000  Tot=              2.5710
 Quadrupole moment (field-independent basis, Debye-Ang):
   XX=            -13.5823   YY=            -10.1669   ZZ=            -14.2019
   XY=             -2.8149   XZ=             -0.0000   YZ=              0.0000

 Normal termination of Gaussian 09 at Fri Feb 10 11:19:51 2017.
