 Gaussian 09, Revision E.01,
 Gaussian 09:  ES64L-G09RevE.01 30-Nov-2015

 ----------------------------------------------------------------------
 #rhf/gen scf(tight,novaracc,noincfock,fulldiag) stable(crhf) guess=rea
 d geom=nocrowd test
 ----------------------------------------------------------------------

 hf stability analysis of h10 triangular lattice, y= -1.157550460854134
 0
 ----------------------------------------------------------------------
 Symbolic Z-matrix:
 Charge =  0 Multiplicity = 1

                         Standard orientation:
 ---------------------------------------------------------------------
 Center     Atomic      Atomic             Coordinates (Angstroms)
 Number     Number       Type             X           Y           Z
 ---------------------------------------------------------------------
      1          1           0        0.000000    0.391086    0.000000
      2          1           0        0.000000   -1.373314    0.000000
      3          1           0        1.747229    0.636643    0.000000
      4          1           0       -1.747229   -1.127757    0.000000
      5          1           0        3.494458    0.882200    0.000000
      6          1           0       -3.494458   -0.882200    0.000000
      7          1           0        5.241687    1.127757    0.000000
      8          1           0       -5.241687   -0.636643    0.000000
      9          1           0        6.988916    1.373314    0.000000
     10          1           0       -6.988916   -0.391086    0.000000
 ---------------------------------------------------------------------

 SCF Done:  E(RHF) =  -4.76115039354     A.U. after   10 cycles
 E2 =    -0.1759361532D+00 EUMP2 =    -0.49370865466887D+01

 The electronic state is 1-A'.
 Alpha  occ. eigenvalues --   -0.50008  -0.45029  -0.42209  -0.36903  -0.31191
 Alpha virt. eigenvalues --   -0.07808   0.00203   0.03415   0.13790   0.14536

 Mulliken charges:
               1
     1  H    0.053686
     2  H    0.051083
     3  H   -0.004503
     4  H    0.006035
     5  H   -0.022374
     6  H   -0.058965
     7  H   -0.007845
     8  H   -0.001083
     9  H    0.002257
    10  H   -0.018292
 Sum of Mulliken charges =  -0.00000

 Dipole moment (field-independent basis, Debye):
    X=              1.0453    Y=             -0.1175    Z=              0.0000  Tot=              1.0519
 Quadrupole moment (field-independent basis, Debye-Ang):
   XX=            -19.4839   YY=            -13.3845   ZZ=            -14.6355
   XY=             -1.7833   XZ=              0.0000   YZ=              0.0000

 Normal termination of Gaussian 09 at Fri Feb 10 11:21:07 2017.
