 Gaussian 09, Revision E.01,
 Gaussian 09:  ES64L-G09RevE.01 30-Nov-2015

 ----------------------------------------------------------------------
 #rhf/gen scf(tight,novaracc,noincfock,fulldiag) stable(crhf) guess=rea
 d geom=nocrowd test
 ----------------------------------------------------------------------

 hf stability analysis of h10 triangular lattice, y= -0.515860502235367
 39
 ----------------------------------------------------------------------
 Symbolic Z-matrix:
 Charge =  0 Multiplicity = 1

                         Standard orientation:
 ---------------------------------------------------------------------
 Center     Atomic      Atomic             Coordinates (Angstroms)
 Number     Number       Type             X           Y           Z
 ---------------------------------------------------------------------
      1          1           0       -1.761058    1.036233    0.000000
      2          1           0       -3.281736    1.931023    0.000000
      3          1           0        0.000000    1.144771    0.000000
      4          1           0       -2.521397    0.338857    0.000000
      5          1           0        1.761058    1.253309    0.000000
      6          1           0       -1.761058   -1.253309   -0.000000
      7          1           0        3.522117    1.361847    0.000000
      8          1           0       -1.000720   -2.845475   -0.000000
      9          1           0        5.283175    1.470385    0.000000
     10          1           0       -0.240381   -4.437641   -0.000000
 ---------------------------------------------------------------------

 SCF Done:  E(RHF) =  -4.76864596021     A.U. after   12 cycles
 E2 =    -0.2020437765D+00 EUMP2 =    -0.49706897366795D+01

 The electronic state is 1-A'.
 Alpha  occ. eigenvalues --   -0.61849  -0.46029  -0.40192  -0.37432  -0.26909
 Alpha virt. eigenvalues --   -0.08183  -0.03785   0.08734   0.12031   0.26371

 Mulliken charges:
               1
     1  H    0.093724
     2  H   -0.009303
     3  H   -0.022986
     4  H    0.070018
     5  H    0.040683
     6  H   -0.126316
     7  H   -0.018353
     8  H    0.005738
     9  H    0.035234
    10  H   -0.068439
 Sum of Mulliken charges =  -0.00000

 Dipole moment (field-independent basis, Debye):
    X=              0.5535    Y=              2.8822    Z=              0.0000  Tot=              2.9349
 Quadrupole moment (field-independent basis, Debye-Ang):
   XX=             -5.7618   YY=            -19.6088   ZZ=            -14.4501
   XY=             -1.4915   XZ=             -0.0000   YZ=             -0.0000

 Normal termination of Gaussian 09 at Fri Feb 10 11:21:57 2017.
