 Gaussian 09, Revision E.01,
 Gaussian 09:  ES64L-G09RevE.01 30-Nov-2015

 ----------------------------------------------------------------------
 #rhf/gen scf(tight,novaracc,noincfock,fulldiag) stable(crhf) guess=rea
 d geom=nocrowd test
 ----------------------------------------------------------------------

 hf stability analysis of h10 triangular lattice, y= -1.445311805503598
 5
 ----------------------------------------------------------------------
 Symbolic Z-matrix:
 Charge =  0 Multiplicity = 1

                         Standard orientation:
 ---------------------------------------------------------------------
 Center     Atomic      Atomic             Coordinates (Angstroms)
 Number     Number       Type             X           Y           Z
 ---------------------------------------------------------------------
      1          1           0        0.000000    2.089121    0.000000
      2          1           0        0.000000    0.324721    0.000000
      3          1           0        1.657994    1.485660    0.000000
      4          1           0       -1.657994   -0.278740    0.000000
      5          1           0        3.315987    0.882200    0.000000
      6          1           0       -3.315987   -0.882200    0.000000
      7          1           0        4.973981    0.278740    0.000000
      8          1           0       -4.973981   -1.485660    0.000000
      9          1           0        6.631975   -0.324721    0.000000
     10          1           0       -6.631975   -2.089121    0.000000
 ---------------------------------------------------------------------

 SCF Done:  E(RHF) =  -4.75825182378     A.U. after   11 cycles
 E2 =    -0.1754719800D+00 EUMP2 =    -0.49337238038141D+01

 The electronic state is 1-A'.
 Alpha  occ. eigenvalues --   -0.50823  -0.45378  -0.41699  -0.37043  -0.30625
 Alpha virt. eigenvalues --   -0.08053   0.00839   0.02681   0.13323   0.15322

 Mulliken charges:
               1
     1  H    0.060683
     2  H    0.070096
     3  H    0.010972
     4  H   -0.015813
     5  H   -0.096715
     6  H    0.001289
     7  H    0.005449
     8  H   -0.012461
     9  H   -0.039198
    10  H    0.015699
 Sum of Mulliken charges =   0.00000

 Dipole moment (field-independent basis, Debye):
    X=             -2.6685    Y=              0.4023    Z=              0.0000  Tot=              2.6987
 Quadrupole moment (field-independent basis, Debye-Ang):
   XX=            -21.3005   YY=            -11.7788   ZZ=            -14.6250
   XY=             -0.3284   XZ=              0.0000   YZ=              0.0000

 Normal termination of Gaussian 09 at Fri Feb 10 11:20:38 2017.
