 Gaussian 09, Revision E.01,
 Gaussian 09:  ES64L-G09RevE.01 30-Nov-2015

 ----------------------------------------------------------------------
 #rhf/gen scf(tight,novaracc,noincfock,fulldiag) stable(crhf) guess=rea
 d geom=nocrowd test
 ----------------------------------------------------------------------

 ----------------------------------------------------------------------
 hf stability analysis of h10 triangular lattice, y= 1.4962960871966442
 ----------------------------------------------------------------------
 Symbolic Z-matrix:
 Charge =  0 Multiplicity = 1

                         Standard orientation:
 ---------------------------------------------------------------------
 Center     Atomic      Atomic             Coordinates (Angstroms)
 Number     Number       Type             X           Y           Z
 ---------------------------------------------------------------------
      1          1           0        3.171664    2.429124    0.000000
      2          1           0        3.171664    0.664724    0.000000
      3          1           0        1.585832    1.655662    0.000000
      4          1           0        1.585832   -0.108738    0.000000
      5          1           0        0.000000    0.882200    0.000000
      6          1           0       -0.000000   -0.882200    0.000000
      7          1           0       -1.585832    0.108738    0.000000
      8          1           0       -1.585832   -1.655662    0.000000
      9          1           0       -3.171664   -0.664724    0.000000
     10          1           0       -3.171664   -2.429124    0.000000
 ---------------------------------------------------------------------

 SCF Done:  E(RHF) =  -4.65876889303     A.U. after   11 cycles
 E2 =    -0.1891916325D+00 EUMP2 =    -0.48479605255715D+01

 The electronic state is 1-AG.
 Alpha  occ. eigenvalues --   -0.55955  -0.49571  -0.39340  -0.33000  -0.25869
 Alpha virt. eigenvalues --   -0.09231   0.02329   0.04021   0.14712   0.17207

 Mulliken charges:
               1
     1  H    0.060217
     2  H   -0.074098
     3  H    0.063553
     4  H   -0.069046
     5  H    0.019374
     6  H    0.019374
     7  H   -0.069046
     8  H    0.063553
     9  H   -0.074098
    10  H    0.060217
 Sum of Mulliken charges =   0.00000

 Dipole moment (field-independent basis, Debye):
    X=              0.0000    Y=             -0.0000    Z=              0.0000  Tot=              0.0000
 Quadrupole moment (field-independent basis, Debye-Ang):
   XX=            -12.0895   YY=             -9.6890   ZZ=            -14.2250
   XY=              7.6675   XZ=             -0.0000   YZ=             -0.0000

 Normal termination of Gaussian 09 at Fri Feb 10 11:18:27 2017.
