 Gaussian 09, Revision E.01,
 Gaussian 09:  ES64L-G09RevE.01 30-Nov-2015

 ----------------------------------------------------------------------
 #rhf/gen scf(tight,novaracc,noincfock,fulldiag) stable(crhf) guess=rea
 d geom=nocrowd test
 ----------------------------------------------------------------------

 ----------------------------------------------------------------------
 hf stability analysis of h10 triangular lattice, y= 1.4091125212604902
 ----------------------------------------------------------------------
 Symbolic Z-matrix:
 Charge =  0 Multiplicity = 1

                         Standard orientation:
 ---------------------------------------------------------------------
 Center     Atomic      Atomic             Coordinates (Angstroms)
 Number     Number       Type             X           Y           Z
 ---------------------------------------------------------------------
      1          1           0        3.392100    1.854869   -0.000000
      2          1           0        3.392100    0.090469   -0.000000
      3          1           0        1.696050    1.368535   -0.000000
      4          1           0        1.696050   -0.395865   -0.000000
      5          1           0        0.000000    0.882200    0.000000
      6          1           0       -0.000000   -0.882200    0.000000
      7          1           0       -1.696050    0.395865   -0.000000
      8          1           0       -1.696050   -1.368535   -0.000000
      9          1           0       -3.392100   -0.090469   -0.000000
     10          1           0       -3.392100   -1.854869   -0.000000
 ---------------------------------------------------------------------

 SCF Done:  E(RHF) =  -4.69188164405     A.U. after   10 cycles
 E2 =    -0.1819863728D+00 EUMP2 =    -0.48738680168295D+01

 The electronic state is 1-AG.
 Alpha  occ. eigenvalues --   -0.54963  -0.48626  -0.38177  -0.34965  -0.27928
 Alpha virt. eigenvalues --   -0.08229  -0.00567   0.05125   0.12601   0.20617

 Mulliken charges:
               1
     1  H    0.046014
     2  H   -0.043834
     3  H    0.032077
     4  H   -0.027410
     5  H   -0.006848
     6  H   -0.006848
     7  H   -0.027410
     8  H    0.032077
     9  H   -0.043834
    10  H    0.046014
 Sum of Mulliken charges =  -0.00000

 Dipole moment (field-independent basis, Debye):
    X=              0.0000    Y=              0.0000    Z=             -0.0000  Tot=              0.0000
 Quadrupole moment (field-independent basis, Debye-Ang):
   XX=             -9.1552   YY=            -13.3572   ZZ=            -14.3156
   XY=              5.6660   XZ=              0.0000   YZ=              0.0000

 Normal termination of Gaussian 09 at Fri Feb 10 11:18:17 2017.
