 Gaussian 09, Revision E.01,
 Gaussian 09:  ES64L-G09RevE.01 30-Nov-2015

 ----------------------------------------------------------------------
 #rhf/gen scf(symm,tight,novaracc,noincfock,fulldiag) stable(crhf) gues
 s=read geom=nocrowd test
 ----------------------------------------------------------------------

 hf stability analysis of h10 triangular lattice, y= 0.4458672966047664
 3
 ----------------------------------------------------------------------
 Symbolic Z-matrix:
 Charge =  0 Multiplicity = 1

                         Standard orientation:
 ---------------------------------------------------------------------
 Center     Atomic      Atomic             Coordinates (Angstroms)
 Number     Number       Type             X           Y           Z
 ---------------------------------------------------------------------
      1          1           0        2.589785    1.337602    0.000000
      2          1           0        3.884678    0.891735    0.000000
      3          1           0        1.294893    0.891735    0.000000
      4          1           0        2.589785    0.445867    0.000000
      5          1           0        0.000000    0.445867    0.000000
      6          1           0        1.294893    0.000000    0.000000
      7          1           0       -1.294893    0.000000    0.000000
      8          1           0       -0.000000   -0.445867   -0.000000
      9          1           0       -2.589785   -0.445867    0.000000
     10          1           0       -1.294893   -0.891735    0.000000
     11          1           0       -3.884678   -0.891735    0.000000
     12          1           0       -2.589785   -1.337602    0.000000
 ---------------------------------------------------------------------

 SCF Done:  E(RHF) =  -5.62255583340     A.U. after    9 cycles
 E2 =    -0.4332555119D+00 EUMP2 =    -0.60558113452997D+01

 The electronic state is 1-AG.
 Alpha  occ. eigenvalues --   -0.78961  -0.74184  -0.63968  -0.50547  -0.34347
 Alpha  occ. eigenvalues --   -0.07024
 Alpha virt. eigenvalues --   -0.01613   0.09907   0.18169   0.31803   0.48618
 Alpha virt. eigenvalues --    0.63489

 Mulliken charges:
               1
     1  H   -0.073229
     2  H   -0.094595
     3  H    0.052469
     4  H    0.162435
     5  H    0.003274
     6  H   -0.050355
     7  H   -0.050355
     8  H    0.003274
     9  H    0.162435
    10  H    0.052469
    11  H   -0.094595
    12  H   -0.073229
 Sum of Mulliken charges =  -0.00000

 Dipole moment (field-independent basis, Debye):
    X=              0.0000    Y=              0.0000    Z=             -0.0000  Tot=              0.0000
 Quadrupole moment (field-independent basis, Debye-Ang):
   XX=            -30.3975   YY=            -15.1917   ZZ=            -15.1215
   XY=             -4.9395   XZ=              0.0000   YZ=              0.0000

 Normal termination of Gaussian 09 at Fri Feb 17 13:51:05 2017.
