 Gaussian 09, Revision E.01,
 Gaussian 09:  ES64L-G09RevE.01 30-Nov-2015

 ----------------------------------------------------------------------
 #rhf/gen scf(symm,tight,novaracc,noincfock,fulldiag) stable(crhf) gues
 s=read geom=nocrowd test
 ----------------------------------------------------------------------

 hf stability analysis of h10 triangular lattice, y= 0.5773502789032680
 7
 ----------------------------------------------------------------------
 Symbolic Z-matrix:
 Charge =  0 Multiplicity = 1

                         Standard orientation:
 ---------------------------------------------------------------------
 Center     Atomic      Atomic             Coordinates (Angstroms)
 Number     Number       Type             X           Y           Z
 ---------------------------------------------------------------------
      1          1           0        2.000000    1.732051    0.000000
      2          1           0        3.000000    1.154701    0.000000
      3          1           0        1.000000    1.154701    0.000000
      4          1           0        2.000000    0.577350    0.000000
      5          1           0        0.000000    0.577350    0.000000
      6          1           0        1.000000    0.000000    0.000000
      7          1           0       -1.000000    0.000000    0.000000
      8          1           0       -0.000000   -0.577350    0.000000
      9          1           0       -2.000000   -0.577350    0.000000
     10          1           0       -1.000000   -1.154701    0.000000
     11          1           0       -3.000000   -1.154701    0.000000
     12          1           0       -2.000000   -1.732051    0.000000
 ---------------------------------------------------------------------

 SCF Done:  E(RHF) =  -5.50539344030     A.U. after    9 cycles
 E2 =    -0.2690166380D+00 EUMP2 =    -0.57744100783367D+01

 The electronic state is 1-AG.
 Alpha  occ. eigenvalues --   -0.87392  -0.77907  -0.64254  -0.45955  -0.23344
 Alpha  occ. eigenvalues --   -0.20898
 Alpha virt. eigenvalues --   -0.15341   0.11661   0.29627   0.35056   0.56751
 Alpha virt. eigenvalues --    0.57635

 Mulliken charges:
               1
     1  H    0.067961
     2  H   -0.161751
     3  H   -0.111629
     4  H    0.037511
     5  H    0.097555
     6  H    0.070353
     7  H    0.070353
     8  H    0.097555
     9  H    0.037511
    10  H   -0.111629
    11  H   -0.161751
    12  H    0.067961
 Sum of Mulliken charges =  -0.00000

 Dipole moment (field-independent basis, Debye):
    X=              0.0000    Y=             -0.0000    Z=             -0.0000  Tot=              0.0000
 Quadrupole moment (field-independent basis, Debye-Ang):
   XX=            -30.6402   YY=            -17.8921   ZZ=            -15.1007
   XY=             -6.7944   XZ=             -0.0000   YZ=              0.0000

 Normal termination of Gaussian 09 at Fri Feb 17 13:53:16 2017.
