 Gaussian 09, Revision E.01,
 Gaussian 09:  ES64L-G09RevE.01 30-Nov-2015

 ----------------------------------------------------------------------
 #rhf/gen scf(symm,tight,novaracc,noincfock,fulldiag) stable(crhf) gues
 s=read geom=nocrowd test
 ----------------------------------------------------------------------

 hf stability analysis of h10 triangular lattice, y= 0.6358183901871248
 3
 ----------------------------------------------------------------------
 Symbolic Z-matrix:
 Charge =  0 Multiplicity = 1

                         Standard orientation:
 ---------------------------------------------------------------------
 Center     Atomic      Atomic             Coordinates (Angstroms)
 Number     Number       Type             X           Y           Z
 ---------------------------------------------------------------------
      1          1           0        1.816085    1.907455   -0.000000
      2          1           0        2.724128    1.271637   -0.000000
      3          1           0        0.908043    1.271637   -0.000000
      4          1           0        1.816085    0.635818   -0.000000
      5          1           0        0.000000    0.635818   -0.000000
      6          1           0        0.908043    0.000000    0.000000
      7          1           0       -0.908043    0.000000   -0.000000
      8          1           0       -0.000000   -0.635818    0.000000
      9          1           0       -1.816085   -0.635818   -0.000000
     10          1           0       -0.908043   -1.271637    0.000000
     11          1           0       -2.724128   -1.271637   -0.000000
     12          1           0       -1.816085   -1.907455    0.000000
 ---------------------------------------------------------------------

 SCF Done:  E(RHF) =  -5.43300560022     A.U. after   10 cycles
 E2 =    -0.1853597598D+01 EUMP2 =    -0.72866031978347D+01

 The electronic state is 1-AG.
 Alpha  occ. eigenvalues --   -0.89270  -0.78202  -0.63672  -0.44982  -0.24815
 Alpha  occ. eigenvalues --   -0.19256
 Alpha virt. eigenvalues --   -0.19243   0.10226   0.32479   0.34075   0.59672
 Alpha virt. eigenvalues --    0.73619

 Mulliken charges:
               1
     1  H    0.059098
     2  H   -0.164386
     3  H   -0.120464
     4  H   -0.004154
     5  H    0.121727
     6  H    0.108179
     7  H    0.108179
     8  H    0.121727
     9  H   -0.004154
    10  H   -0.120464
    11  H   -0.164386
    12  H    0.059098
 Sum of Mulliken charges =  -0.00000

 Dipole moment (field-independent basis, Debye):
    X=              0.0000    Y=              0.0000    Z=              0.0000  Tot=              0.0000
 Quadrupole moment (field-independent basis, Debye-Ang):
   XX=            -30.1503   YY=            -19.1468   ZZ=            -14.9511
   XY=             -8.5844   XZ=              0.0000   YZ=              0.0000

 Normal termination of Gaussian 09 at Fri Feb 17 13:54:18 2017.
