 Gaussian 09, Revision E.01,
 Gaussian 09:  ES64L-G09RevE.01 30-Nov-2015

 ----------------------------------------------------------------------
 #rhf/gen scf(symm,tight,novaracc,noincfock,fulldiag) stable(crhf) gues
 s=read geom=nocrowd test
 ----------------------------------------------------------------------

 hf stability analysis of h10 triangular lattice, y= 0.8149635215757493
 6
 ----------------------------------------------------------------------
 Symbolic Z-matrix:
 Charge =  0 Multiplicity = 1

                         Standard orientation:
 ---------------------------------------------------------------------
 Center     Atomic      Atomic             Coordinates (Angstroms)
 Number     Number       Type             X           Y           Z
 ---------------------------------------------------------------------
      1          1           0        2.444891    1.416874   -0.000000
      2          1           0        1.629927    2.125311    0.000000
      3          1           0        1.629927    0.708437   -0.000000
      4          1           0        0.814964    1.416874    0.000000
      5          1           0        0.814964    0.000000   -0.000000
      6          1           0        0.000000    0.708437    0.000000
      7          1           0       -0.000000   -0.708437    0.000000
      8          1           0       -0.814964    0.000000    0.000000
      9          1           0       -0.814964   -1.416874    0.000000
     10          1           0       -1.629927   -0.708437    0.000000
     11          1           0       -1.629927   -2.125311    0.000000
     12          1           0       -2.444891   -1.416874    0.000000
 ---------------------------------------------------------------------

 SCF Done:  E(RHF) =  -5.36679839533     A.U. after   11 cycles
 E2 =    -0.3001501069D+00 EUMP2 =    -0.56669485022234D+01

 The electronic state is 1-AG.
 Alpha  occ. eigenvalues --   -0.90236  -0.77855  -0.62981  -0.44306  -0.26178
 Alpha  occ. eigenvalues --   -0.16660
 Alpha virt. eigenvalues --   -0.21490   0.09540   0.32897   0.33133   0.63551
 Alpha virt. eigenvalues --    0.89368

 Mulliken charges:
               1
     1  H   -0.096663
     2  H    0.001045
     3  H   -0.071708
     4  H   -0.118085
     5  H    0.123936
     6  H    0.161475
     7  H    0.161475
     8  H    0.123936
     9  H   -0.118085
    10  H   -0.071708
    11  H    0.001045
    12  H   -0.096663
 Sum of Mulliken charges =  -0.00000

 Dipole moment (field-independent basis, Debye):
    X=             -0.0000    Y=             -0.0000    Z=             -0.0000  Tot=              0.0000
 Quadrupole moment (field-independent basis, Debye-Ang):
   XX=            -26.6649   YY=            -21.7625   ZZ=            -14.8341
   XY=             -9.6646   XZ=              0.0000   YZ=              0.0000

 Normal termination of Gaussian 09 at Fri Feb 17 13:57:11 2017.
