 Gaussian 09, Revision E.01,
 Gaussian 09:  ES64L-G09RevE.01 30-Nov-2015

 ----------------------------------------------------------------------
 #rhf/gen scf(symm,tight,novaracc,noincfock,fulldiag) stable(crhf) gues
 s=read geom=nocrowd test
 ----------------------------------------------------------------------

 ----------------------------------------------------------------------
 hf stability analysis of h10 triangular lattice, y= 1.1387493349689228
 ----------------------------------------------------------------------
 Symbolic Z-matrix:
 Charge =  0 Multiplicity = 1

                         Standard orientation:
 ---------------------------------------------------------------------
 Center     Atomic      Atomic             Coordinates (Angstroms)
 Number     Number       Type             X           Y           Z
 ---------------------------------------------------------------------
      1          1           0        3.416248    1.014008   -0.000000
      2          1           0        2.277499    1.521012   -0.000000
      3          1           0        2.277499    0.507004   -0.000000
      4          1           0        1.138749    1.014008   -0.000000
      5          1           0        1.138749    0.000000    0.000000
      6          1           0        0.000000    0.507004   -0.000000
      7          1           0       -0.000000   -0.507004   -0.000000
      8          1           0       -1.138749    0.000000   -0.000000
      9          1           0       -1.138749   -1.014008   -0.000000
     10          1           0       -2.277499   -0.507004   -0.000000
     11          1           0       -2.277499   -1.521012   -0.000000
     12          1           0       -3.416248   -1.014008   -0.000000
 ---------------------------------------------------------------------

 SCF Done:  E(RHF) =  -5.56690882181     A.U. after    9 cycles
 E2 =    -0.2585519066D+00 EUMP2 =    -0.58254607283985D+01

 The electronic state is 1-AG.
 Alpha  occ. eigenvalues --   -0.83239  -0.76144  -0.64372  -0.47426  -0.27662
 Alpha  occ. eigenvalues --   -0.14456
 Alpha virt. eigenvalues --   -0.07490   0.12149   0.25574   0.28380   0.45546
 Alpha virt. eigenvalues --    0.59664

 Mulliken charges:
               1
     1  H   -0.075092
     2  H    0.013364
     3  H    0.073813
     4  H   -0.076809
     5  H   -0.005357
     6  H    0.070081
     7  H    0.070081
     8  H   -0.005357
     9  H   -0.076809
    10  H    0.073813
    11  H    0.013364
    12  H   -0.075092
 Sum of Mulliken charges =  -0.00000

 Dipole moment (field-independent basis, Debye):
    X=             -0.0000    Y=             -0.0000    Z=              0.0000  Tot=              0.0000
 Quadrupole moment (field-independent basis, Debye-Ang):
   XX=            -25.1634   YY=            -17.4064   ZZ=            -15.3054
   XY=             -3.8337   XZ=             -0.0000   YZ=             -0.0000

 Normal termination of Gaussian 09 at Fri Feb 17 14:00:38 2017.
