 Gaussian 09, Revision E.01,
 Gaussian 09:  ES64L-G09RevE.01 30-Nov-2015

 ----------------------------------------------------------------------
 #rhf/gen scf(symm,tight,novaracc,noincfock,fulldiag) stable(crhf) gues
 s=read geom=nocrowd test
 ----------------------------------------------------------------------

 ----------------------------------------------------------------------
 hf stability analysis of h10 triangular lattice, y= 1.6480958607190197
 ----------------------------------------------------------------------
 Symbolic Z-matrix:
 Charge =  0 Multiplicity = 1

                         Standard orientation:
 ---------------------------------------------------------------------
 Center     Atomic      Atomic             Coordinates (Angstroms)
 Number     Number       Type             X           Y           Z
 ---------------------------------------------------------------------
      1          1           0        4.944288    0.700627    0.000000
      2          1           0        3.296192    1.050941    0.000000
      3          1           0        3.296192    0.350314    0.000000
      4          1           0        1.648096    0.700627    0.000000
      5          1           0        1.648096    0.000000    0.000000
      6          1           0        0.000000    0.350314    0.000000
      7          1           0       -0.000000   -0.350314   -0.000000
      8          1           0       -1.648096    0.000000    0.000000
      9          1           0       -1.648096   -0.700627    0.000000
     10          1           0       -3.296192   -0.350314    0.000000
     11          1           0       -3.296192   -1.050941    0.000000
     12          1           0       -4.944288   -0.700627    0.000000
 ---------------------------------------------------------------------

 SCF Done:  E(RHF) =  -5.96106083386     A.U. after    6 cycles
 E2 =    -0.7920647160D+00 EUMP2 =    -0.67531255498342D+01

 The electronic state is 1-AG.
 Alpha  occ. eigenvalues --   -0.74862  -0.71822  -0.66107  -0.58794  -0.50815
 Alpha  occ. eigenvalues --   -0.16488
 Alpha virt. eigenvalues --   -0.11197   0.27027   0.33398   0.44139   0.56692
 Alpha virt. eigenvalues --    0.67756

 Mulliken charges:
               1
     1  H   -0.038995
     2  H    0.012143
     3  H    0.021580
     4  H   -0.000039
     5  H    0.005187
     6  H    0.000122
     7  H    0.000122
     8  H    0.005187
     9  H   -0.000039
    10  H    0.021580
    11  H    0.012143
    12  H   -0.038995
 Sum of Mulliken charges =   0.00000

 Dipole moment (field-independent basis, Debye):
    X=             -0.0000    Y=              0.0000    Z=             -0.0000  Tot=              0.0000
 Quadrupole moment (field-independent basis, Debye-Ang):
   XX=            -27.3672   YY=            -13.7677   ZZ=            -15.5356
   XY=             -1.6866   XZ=             -0.0000   YZ=             -0.0000

 Normal termination of Gaussian 09 at Fri Feb 17 14:02:57 2017.
