 Gaussian 09, Revision E.01,
 Gaussian 09:  ES64L-G09RevE.01 30-Nov-2015

 ----------------------------------------------------------------------
 #rhf/gen scf(symm,tight,novaracc,noincfock,fulldiag) stable(crhf) gues
 s=read geom=nocrowd test
 ----------------------------------------------------------------------

 ----------------------------------------------------------------------
 hf stability analysis of h10 triangular lattice, y= 1.0879998015825072
 ----------------------------------------------------------------------
 Symbolic Z-matrix:
 Charge =  0 Multiplicity = 1

                         Standard orientation:
 ---------------------------------------------------------------------
 Center     Atomic      Atomic             Coordinates (Angstroms)
 Number     Number       Type             X           Y           Z
 ---------------------------------------------------------------------
      1          1           0        3.263999    1.061306   -0.000000
      2          1           0        2.176000    1.591959   -0.000000
      3          1           0        2.176000    0.530653   -0.000000
      4          1           0        1.088000    1.061306   -0.000000
      5          1           0        1.088000    0.000000   -0.000000
      6          1           0        0.000000    0.530653    0.000000
      7          1           0       -0.000000   -0.530653    0.000000
      8          1           0       -1.088000    0.000000   -0.000000
      9          1           0       -1.088000   -1.061306   -0.000000
     10          1           0       -2.176000   -0.530653   -0.000000
     11          1           0       -2.176000   -1.591959   -0.000000
     12          1           0       -3.263999   -1.061306   -0.000000
 ---------------------------------------------------------------------

 SCF Done:  E(RHF) =  -5.55293374372     A.U. after    9 cycles
 E2 =    -0.2599207383D+00 EUMP2 =    -0.58128544820552D+01

 The electronic state is 1-AG.
 Alpha  occ. eigenvalues --   -0.84892  -0.76930  -0.64446  -0.46911  -0.25972
 Alpha  occ. eigenvalues --   -0.17187
 Alpha virt. eigenvalues --   -0.10529   0.12636   0.26309   0.32708   0.46792
 Alpha virt. eigenvalues --    0.58440

 Mulliken charges:
               1
     1  H   -0.113970
     2  H    0.041741
     3  H    0.060960
     4  H   -0.093461
     5  H    0.024226
     6  H    0.080504
     7  H    0.080504
     8  H    0.024226
     9  H   -0.093461
    10  H    0.060960
    11  H    0.041741
    12  H   -0.113970
 Sum of Mulliken charges =   0.00000

 Dipole moment (field-independent basis, Debye):
    X=              0.0000    Y=              0.0000    Z=              0.0000  Tot=              0.0000
 Quadrupole moment (field-independent basis, Debye-Ang):
   XX=            -27.9859   YY=            -17.4481   ZZ=            -15.2374
   XY=             -4.8755   XZ=             -0.0000   YZ=             -0.0000

 Normal termination of Gaussian 09 at Fri Feb 17 14:00:14 2017.
