 Gaussian 09, Revision E.01,
 Gaussian 09:  ES64L-G09RevE.01 30-Nov-2015

 ----------------------------------------------------------------------
 #rhf/gen scf(symm,tight,novaracc,noincfock,fulldiag) stable(crhf) gues
 s=read geom=nocrowd test
 ----------------------------------------------------------------------

 hf stability analysis of h10 triangular lattice, y= 0.8294933944434413
 9
 ----------------------------------------------------------------------
 Symbolic Z-matrix:
 Charge =  0 Multiplicity = 1

                         Standard orientation:
 ---------------------------------------------------------------------
 Center     Atomic      Atomic             Coordinates (Angstroms)
 Number     Number       Type             X           Y           Z
 ---------------------------------------------------------------------
      1          1           0        2.488480    1.392055   -0.000000
      2          1           0        1.658987    2.088083   -0.000000
      3          1           0        1.658987    0.696028   -0.000000
      4          1           0        0.829493    1.392055   -0.000000
      5          1           0        0.829493    0.000000   -0.000000
      6          1           0       -0.000000    0.696028   -0.000000
      7          1           0       -0.000000   -0.696028    0.000000
      8          1           0       -0.829493   -0.000000   -0.000000
      9          1           0       -0.829493   -1.392055   -0.000000
     10          1           0       -1.658987   -0.696028   -0.000000
     11          1           0       -1.658987   -2.088083   -0.000000
     12          1           0       -2.488480   -1.392055   -0.000000
 ---------------------------------------------------------------------

 SCF Done:  E(RHF) =  -5.37468751143     A.U. after   11 cycles
 E2 =    -0.2987647602D+00 EUMP2 =    -0.56734522716530D+01

 The electronic state is 1-AG.
 Alpha  occ. eigenvalues --   -0.90146  -0.77924  -0.63071  -0.44377  -0.26063
 Alpha  occ. eigenvalues --   -0.16987
 Alpha virt. eigenvalues --   -0.21269   0.09586   0.33048   0.33141   0.63005
 Alpha virt. eigenvalues --    0.87464

 Mulliken charges:
               1
     1  H   -0.111235
     2  H    0.012877
     3  H   -0.060102
     4  H   -0.119167
     5  H    0.121767
     6  H    0.155860
     7  H    0.155860
     8  H    0.121767
     9  H   -0.119167
    10  H   -0.060102
    11  H    0.012877
    12  H   -0.111235
 Sum of Mulliken charges =   0.00000

 Dipole moment (field-independent basis, Debye):
    X=             -0.0000    Y=              0.0000    Z=              0.0000  Tot=              0.0000
 Quadrupole moment (field-independent basis, Debye-Ang):
   XX=            -27.3413   YY=            -21.2461   ZZ=            -14.8474
   XY=             -9.5613   XZ=              0.0000   YZ=              0.0000

 Normal termination of Gaussian 09 at Fri Feb 17 13:57:23 2017.
