 Gaussian 09, Revision E.01,
 Gaussian 09:  ES64L-G09RevE.01 30-Nov-2015

 ----------------------------------------------------------------------
 #rhf/gen scf(symm,tight,novaracc,noincfock,fulldiag) stable(crhf) gues
 s=read geom=nocrowd test
 ----------------------------------------------------------------------

 hf stability analysis of h10 triangular lattice, y= 0.4201353311163031
 9
 ----------------------------------------------------------------------
 Symbolic Z-matrix:
 Charge =  0 Multiplicity = 1

                         Standard orientation:
 ---------------------------------------------------------------------
 Center     Atomic      Atomic             Coordinates (Angstroms)
 Number     Number       Type             X           Y           Z
 ---------------------------------------------------------------------
      1          1           0        2.748401    1.260406   -0.000000
      2          1           0        4.122602    0.840271   -0.000000
      3          1           0        1.374201    0.840271   -0.000000
      4          1           0        2.748401    0.420135   -0.000000
      5          1           0        0.000000    0.420135    0.000000
      6          1           0        1.374201    0.000000   -0.000000
      7          1           0       -1.374201    0.000000   -0.000000
      8          1           0       -0.000000   -0.420135   -0.000000
      9          1           0       -2.748401   -0.420135   -0.000000
     10          1           0       -1.374201   -0.840271   -0.000000
     11          1           0       -4.122602   -0.840271   -0.000000
     12          1           0       -2.748401   -1.260406   -0.000000
 ---------------------------------------------------------------------

 SCF Done:  E(RHF) =  -5.74814320245     A.U. after    8 cycles
 E2 =    -0.6005604956D+00 EUMP2 =    -0.63487036981016D+01

 The electronic state is 1-AG.
 Alpha  occ. eigenvalues --   -0.78128  -0.73590  -0.64598  -0.52878  -0.38718
 Alpha  occ. eigenvalues --   -0.09392
 Alpha virt. eigenvalues --   -0.03892   0.13421   0.21321   0.34774   0.50488
 Alpha virt. eigenvalues --    0.64361

 Mulliken charges:
               1
     1  H    0.004218
     2  H   -0.121747
     3  H    0.017235
     4  H    0.095350
     5  H    0.001035
     6  H    0.003910
     7  H    0.003910
     8  H    0.001035
     9  H    0.095350
    10  H    0.017235
    11  H   -0.121747
    12  H    0.004218
 Sum of Mulliken charges =  -0.00000

 Dipole moment (field-independent basis, Debye):
    X=              0.0000    Y=             -0.0000    Z=              0.0000  Tot=              0.0000
 Quadrupole moment (field-independent basis, Debye-Ang):
   XX=            -35.3252   YY=            -13.7331   ZZ=            -15.1447
   XY=             -4.4918   XZ=             -0.0000   YZ=             -0.0000

 Normal termination of Gaussian 09 at Fri Feb 17 13:50:42 2017.
