 Gaussian 09, Revision E.01,
 Gaussian 09:  ES64L-G09RevE.01 30-Nov-2015

 ----------------------------------------------------------------------
 #rhf/gen scf(symm,tight,novaracc,noincfock,fulldiag) stable(crhf) gues
 s=read geom=nocrowd test
 ----------------------------------------------------------------------

 hf stability analysis of h10 triangular lattice, y= 0.9251794552834028
 4
 ----------------------------------------------------------------------
 Symbolic Z-matrix:
 Charge =  0 Multiplicity = 1

                         Standard orientation:
 ---------------------------------------------------------------------
 Center     Atomic      Atomic             Coordinates (Angstroms)
 Number     Number       Type             X           Y           Z
 ---------------------------------------------------------------------
      1          1           0        2.775538    1.248083    0.000000
      2          1           0        1.850359    1.872124    0.000000
      3          1           0        1.850359    0.624041    0.000000
      4          1           0        0.925179    1.248083    0.000000
      5          1           0        0.925179    0.000000    0.000000
      6          1           0        0.000000    0.624041    0.000000
      7          1           0       -0.000000   -0.624041    0.000000
      8          1           0       -0.925179    0.000000    0.000000
      9          1           0       -0.925179   -1.248083    0.000000
     10          1           0       -1.850359   -0.624041    0.000000
     11          1           0       -1.850359   -1.872124    0.000000
     12          1           0       -2.775538   -1.248083    0.000000
 ---------------------------------------------------------------------

 SCF Done:  E(RHF) =  -5.44722287538     A.U. after   10 cycles
 E2 =    -0.2970579535D+00 EUMP2 =    -0.57442808289127D+01

 The electronic state is 1-AG.
 Alpha  occ. eigenvalues --   -0.88987  -0.78207  -0.63802  -0.45151  -0.24410
 Alpha  occ. eigenvalues --   -0.19796
 Alpha virt. eigenvalues --   -0.18629   0.10452   0.32121   0.34315   0.59059
 Alpha virt. eigenvalues --    0.70298

 Mulliken charges:
               1
     1  H   -0.168790
     2  H    0.064229
     3  H    0.005514
     4  H   -0.119645
     5  H    0.102616
     6  H    0.116077
     7  H    0.116077
     8  H    0.102616
     9  H   -0.119645
    10  H    0.005514
    11  H    0.064229
    12  H   -0.168790
 Sum of Mulliken charges =   0.00000

 Dipole moment (field-independent basis, Debye):
    X=             -0.0000    Y=             -0.0000    Z=             -0.0000  Tot=              0.0000
 Quadrupole moment (field-independent basis, Debye-Ang):
   XX=            -30.4907   YY=            -18.8292   ZZ=            -14.9781
   XY=             -8.2881   XZ=             -0.0000   YZ=             -0.0000

 Normal termination of Gaussian 09 at Fri Feb 17 13:58:35 2017.
