 Gaussian 09, Revision E.01,
 Gaussian 09:  ES64L-G09RevE.01 30-Nov-2015

 ----------------------------------------------------------------------
 #rhf/gen scf(symm,tight,novaracc,noincfock,fulldiag) stable(crhf) gues
 s=read geom=nocrowd test
 ----------------------------------------------------------------------

 hf stability analysis of h10 triangular lattice, y= 0.8007574317254395
 6
 ----------------------------------------------------------------------
 Symbolic Z-matrix:
 Charge =  0 Multiplicity = 1

                         Standard orientation:
 ---------------------------------------------------------------------
 Center     Atomic      Atomic             Coordinates (Angstroms)
 Number     Number       Type             X           Y           Z
 ---------------------------------------------------------------------
      1          1           0        2.402272    1.442010    0.000000
      2          1           0        1.601515    2.163016    0.000000
      3          1           0        1.601515    0.721005    0.000000
      4          1           0        0.800757    1.442010    0.000000
      5          1           0        0.800757    0.000000    0.000000
      6          1           0        0.000000    0.721005    0.000000
      7          1           0       -0.000000   -0.721005    0.000000
      8          1           0       -0.800757    0.000000    0.000000
      9          1           0       -0.800757   -1.442010    0.000000
     10          1           0       -1.601515   -0.721005    0.000000
     11          1           0       -1.601515   -2.163016    0.000000
     12          1           0       -2.402272   -1.442010    0.000000
 ---------------------------------------------------------------------

 SCF Done:  E(RHF) =  -5.36049812883     A.U. after   11 cycles
 E2 =    -0.3049634137D+00 EUMP2 =    -0.56654615425674D+01

 The electronic state is 1-AG.
 Alpha  occ. eigenvalues --   -0.90308  -0.77796  -0.62907  -0.44252  -0.26259
 Alpha  occ. eigenvalues --   -0.16389
 Alpha virt. eigenvalues --   -0.21658   0.09515   0.32769   0.33098   0.64008
 Alpha virt. eigenvalues --    0.90888

 Mulliken charges:
               1
     1  H   -0.082200
     2  H   -0.010858
     3  H   -0.082673
     4  H   -0.116650
     5  H    0.127679
     6  H    0.164702
     7  H    0.164702
     8  H    0.127679
     9  H   -0.116650
    10  H   -0.082673
    11  H   -0.010858
    12  H   -0.082200
 Sum of Mulliken charges =   0.00000

 Dipole moment (field-independent basis, Debye):
    X=             -0.0000    Y=             -0.0000    Z=             -0.0000  Tot=              0.0000
 Quadrupole moment (field-independent basis, Debye-Ang):
   XX=            -25.9925   YY=            -22.3090   ZZ=            -14.8235
   XY=             -9.7492   XZ=             -0.0000   YZ=             -0.0000

 Normal termination of Gaussian 09 at Fri Feb 17 13:56:59 2017.
