 Gaussian 09, Revision E.01,
 Gaussian 09:  ES64L-G09RevE.01 30-Nov-2015

 ----------------------------------------------------------------------
 #rhf/gen scf(symm,tight,novaracc,noincfock,fulldiag) stable(crhf) gues
 s=read geom=nocrowd test
 ----------------------------------------------------------------------

 hf stability analysis of h10 triangular lattice, y= 0.6837609579800398
 9
 ----------------------------------------------------------------------
 Symbolic Z-matrix:
 Charge =  0 Multiplicity = 1

                         Standard orientation:
 ---------------------------------------------------------------------
 Center     Atomic      Atomic             Coordinates (Angstroms)
 Number     Number       Type             X           Y           Z
 ---------------------------------------------------------------------
      1          1           0        1.688749    2.051283    0.000000
      2          1           0        2.533123    1.367522    0.000000
      3          1           0        0.844374    1.367522    0.000000
      4          1           0        1.688749    0.683761    0.000000
      5          1           0        0.000000    0.683761    0.000000
      6          1           0        0.844374    0.000000    0.000000
      7          1           0       -0.844374    0.000000    0.000000
      8          1           0       -0.000000   -0.683761    0.000000
      9          1           0       -1.688749   -0.683761    0.000000
     10          1           0       -0.844374   -1.367522    0.000000
     11          1           0       -2.533123   -1.367522    0.000000
     12          1           0       -1.688749   -2.051283    0.000000
 ---------------------------------------------------------------------

 SCF Done:  E(RHF) =  -5.38404000125     A.U. after   10 cycles
 E2 =    -0.2941522925D+00 EUMP2 =    -0.56781922937200D+01

 The electronic state is 1-AG.
 Alpha  occ. eigenvalues --   -0.90032  -0.77996  -0.63176  -0.44465  -0.25909
 Alpha  occ. eigenvalues --   -0.17363
 Alpha virt. eigenvalues --   -0.20990   0.09656   0.33116   0.33220   0.62389
 Alpha virt. eigenvalues --    0.85213

 Mulliken charges:
               1
     1  H    0.024247
     2  H   -0.125149
     3  H   -0.120001
     4  H   -0.048304
     5  H    0.149009
     6  H    0.120198
     7  H    0.120198
     8  H    0.149009
     9  H   -0.048304
    10  H   -0.120001
    11  H   -0.125149
    12  H    0.024247
 Sum of Mulliken charges =   0.00000

 Dipole moment (field-independent basis, Debye):
    X=             -0.0000    Y=              0.0000    Z=             -0.0000  Tot=              0.0000
 Quadrupole moment (field-independent basis, Debye-Ang):
   XX=            -28.0025   YY=            -20.7604   ZZ=            -14.8634
   XY=             -9.4320   XZ=             -0.0000   YZ=             -0.0000

 Normal termination of Gaussian 09 at Fri Feb 17 13:55:10 2017.
