 Gaussian 09, Revision E.01,
 Gaussian 09:  ES64L-G09RevE.01 30-Nov-2015

 ----------------------------------------------------------------------
 #rhf/gen scf(symm,tight,novaracc,noincfock,fulldiag) stable(crhf) gues
 s=read geom=nocrowd test
 ----------------------------------------------------------------------

 hf stability analysis of h10 triangular lattice, y= 0.5889881594497650
 1
 ----------------------------------------------------------------------
 Symbolic Z-matrix:
 Charge =  0 Multiplicity = 1

                         Standard orientation:
 ---------------------------------------------------------------------
 Center     Atomic      Atomic             Coordinates (Angstroms)
 Number     Number       Type             X           Y           Z
 ---------------------------------------------------------------------
      1          1           0        1.960482    1.766964    0.000000
      2          1           0        2.940723    1.177976    0.000000
      3          1           0        0.980241    1.177976    0.000000
      4          1           0        1.960482    0.588988    0.000000
      5          1           0        0.000000    0.588988    0.000000
      6          1           0        0.980241    0.000000    0.000000
      7          1           0       -0.980241    0.000000    0.000000
      8          1           0       -0.000000   -0.588988    0.000000
      9          1           0       -1.960482   -0.588988    0.000000
     10          1           0       -0.980241   -1.177976    0.000000
     11          1           0       -2.940723   -1.177976    0.000000
     12          1           0       -1.960482   -1.766964    0.000000
 ---------------------------------------------------------------------

 SCF Done:  E(RHF) =  -5.49115202868     A.U. after   10 cycles
 E2 =    -0.2728430448D+00 EUMP2 =    -0.57639950734967D+01

 The electronic state is 1-AG.
 Alpha  occ. eigenvalues --   -0.87867  -0.78037  -0.64157  -0.45737  -0.23235
 Alpha  occ. eigenvalues --   -0.21088
 Alpha virt. eigenvalues --   -0.16296   0.11325   0.30405   0.34954   0.57799
 Alpha virt. eigenvalues --    0.60067

 Mulliken charges:
               1
     1  H    0.069639
     2  H   -0.167292
     3  H   -0.114409
     4  H    0.030504
     5  H    0.101769
     6  H    0.079789
     7  H    0.079789
     8  H    0.101769
     9  H    0.030504
    10  H   -0.114409
    11  H   -0.167292
    12  H    0.069639
 Sum of Mulliken charges =  -0.00000

 Dipole moment (field-independent basis, Debye):
    X=              0.0000    Y=              0.0000    Z=             -0.0000  Tot=              0.0000
 Quadrupole moment (field-independent basis, Debye-Ang):
   XX=            -30.8163   YY=            -18.0782   ZZ=            -15.0683
   XY=             -7.2119   XZ=              0.0000   YZ=             -0.0000

 Normal termination of Gaussian 09 at Fri Feb 17 13:53:29 2017.
