 Gaussian 09, Revision E.01,
 Gaussian 09:  ES64L-G09RevE.01 30-Nov-2015

 ----------------------------------------------------------------------
 #rhf/gen scf(symm,tight,novaracc,noincfock,fulldiag) stable(crhf) gues
 s=read geom=nocrowd test
 ----------------------------------------------------------------------

 ----------------------------------------------------------------------
 hf stability analysis of h10 triangular lattice, y= 1.4678899319530556
 ----------------------------------------------------------------------
 Symbolic Z-matrix:
 Charge =  0 Multiplicity = 1

                         Standard orientation:
 ---------------------------------------------------------------------
 Center     Atomic      Atomic             Coordinates (Angstroms)
 Number     Number       Type             X           Y           Z
 ---------------------------------------------------------------------
      1          1           0        4.403670    0.786640    0.000000
      2          1           0        2.935780    1.179960    0.000000
      3          1           0        2.935780    0.393320    0.000000
      4          1           0        1.467890    0.786640    0.000000
      5          1           0        1.467890    0.000000    0.000000
      6          1           0        0.000000    0.393320    0.000000
      7          1           0       -0.000000   -0.393320    0.000000
      8          1           0       -1.467890    0.000000   -0.000000
      9          1           0       -1.467890   -0.786640    0.000000
     10          1           0       -2.935780   -0.393320   -0.000000
     11          1           0       -2.935780   -1.179960    0.000000
     12          1           0       -4.403670   -0.786640   -0.000000
 ---------------------------------------------------------------------

 SCF Done:  E(RHF) =  -5.86376542758     A.U. after    7 cycles
 E2 =    -0.6689561678D+00 EUMP2 =    -0.65327215953898D+01

 The electronic state is 1-AG.
 Alpha  occ. eigenvalues --   -0.76768  -0.72794  -0.65060  -0.54984  -0.43141
 Alpha  occ. eigenvalues --   -0.12548
 Alpha virt. eigenvalues --   -0.06931   0.18282   0.25585   0.38128   0.52792
 Alpha virt. eigenvalues --    0.65808

 Mulliken charges:
               1
     1  H   -0.089810
     2  H    0.017451
     3  H    0.056883
     4  H    0.004830
     5  H    0.010034
     6  H    0.000613
     7  H    0.000613
     8  H    0.010034
     9  H    0.004830
    10  H    0.056883
    11  H    0.017451
    12  H   -0.089810
 Sum of Mulliken charges =  -0.00000

 Dipole moment (field-independent basis, Debye):
    X=              0.0000    Y=              0.0000    Z=              0.0000  Tot=              0.0000
 Quadrupole moment (field-independent basis, Debye-Ang):
   XX=            -33.0300   YY=            -13.5187   ZZ=            -15.2803
   XY=             -3.2763   XZ=             -0.0000   YZ=             -0.0000

 Normal termination of Gaussian 09 at Fri Feb 17 14:02:23 2017.
