 Gaussian 09, Revision E.01,
 Gaussian 09:  ES64L-G09RevE.01 30-Nov-2015

 ----------------------------------------------------------------------
 #rhf/gen scf(symm,tight,novaracc,noincfock,fulldiag) stable(crhf) gues
 s=read geom=nocrowd test
 ----------------------------------------------------------------------

 hf stability analysis of h10 triangular lattice, y= 0.2848531043101661
 9
 ----------------------------------------------------------------------
 Symbolic Z-matrix:
 Charge =  0 Multiplicity = 1

                         Standard orientation:
 ---------------------------------------------------------------------
 Center     Atomic      Atomic             Coordinates (Angstroms)
 Number     Number       Type             X           Y           Z
 ---------------------------------------------------------------------
      1          1           0        4.053670    0.854559   -0.000000
      2          1           0        6.080505    0.569706   -0.000000
      3          1           0        2.026835    0.569706   -0.000000
      4          1           0        4.053670    0.284853   -0.000000
      5          1           0        0.000000    0.284853    0.000000
      6          1           0        2.026835    0.000000   -0.000000
      7          1           0       -2.026835    0.000000    0.000000
      8          1           0       -0.000000   -0.284853   -0.000000
      9          1           0       -4.053670   -0.284853    0.000000
     10          1           0       -2.026835   -0.569706    0.000000
     11          1           0       -6.080505   -0.569706    0.000000
     12          1           0       -4.053670   -0.854559    0.000000
 ---------------------------------------------------------------------

 SCF Done:  E(RHF) =  -5.79478399449     A.U. after    5 cycles
 E2 =    -0.1029686737D+01 EUMP2 =    -0.68244707316124D+01

 The electronic state is 1-AG.
 Alpha  occ. eigenvalues --   -0.73464  -0.71803  -0.69008  -0.65712  -0.62653
 Alpha  occ. eigenvalues --   -0.19524
 Alpha virt. eigenvalues --   -0.15184   0.42478   0.47225   0.54670   0.63103
 Alpha virt. eigenvalues --    0.70159

 Mulliken charges:
               1
     1  H    0.001878
     2  H   -0.002864
     3  H   -0.000379
     4  H    0.000663
     5  H    0.000003
     6  H    0.000698
     7  H    0.000698
     8  H    0.000003
     9  H    0.000663
    10  H   -0.000379
    11  H   -0.002864
    12  H    0.001878
 Sum of Mulliken charges =  -0.00000

 Dipole moment (field-independent basis, Debye):
    X=              0.0000    Y=             -0.0000    Z=              0.0000  Tot=              0.0000
 Quadrupole moment (field-independent basis, Debye-Ang):
   XX=            -20.4895   YY=            -14.5782   ZZ=            -15.9449
   XY=             -0.4333   XZ=              0.0000   YZ=              0.0000

 Normal termination of Gaussian 09 at Fri Feb 17 13:48:53 2017.
