 Gaussian 09, Revision E.01,
 Gaussian 09:  ES64L-G09RevE.01 30-Nov-2015

 ----------------------------------------------------------------------
 #rhf/gen scf(symm,tight,novaracc,noincfock,fulldiag) stable(crhf) gues
 s=read geom=nocrowd test
 ----------------------------------------------------------------------

 ----------------------------------------------------------------------
 hf stability analysis of h10 triangular lattice, y= 1.1127136872907215
 ----------------------------------------------------------------------
 Symbolic Z-matrix:
 Charge =  0 Multiplicity = 1

                         Standard orientation:
 ---------------------------------------------------------------------
 Center     Atomic      Atomic             Coordinates (Angstroms)
 Number     Number       Type             X           Y           Z
 ---------------------------------------------------------------------
      1          1           0        3.338141    1.037734    0.000000
      2          1           0        2.225427    1.556601    0.000000
      3          1           0        2.225427    0.518867    0.000000
      4          1           0        1.112714    1.037734    0.000000
      5          1           0        1.112714   -0.000000    0.000000
      6          1           0        0.000000    0.518867   -0.000000
      7          1           0       -0.000000   -0.518867   -0.000000
      8          1           0       -1.112714    0.000000    0.000000
      9          1           0       -1.112714   -1.037734    0.000000
     10          1           0       -2.225427   -0.518867    0.000000
     11          1           0       -2.225427   -1.556601    0.000000
     12          1           0       -3.338141   -1.037734    0.000000
 ---------------------------------------------------------------------

 SCF Done:  E(RHF) =  -5.56096933142     A.U. after    9 cycles
 E2 =    -0.2589766964D+00 EUMP2 =    -0.58199460278293D+01

 The electronic state is 1-AG.
 Alpha  occ. eigenvalues --   -0.84101  -0.76562  -0.64426  -0.47166  -0.26796
 Alpha  occ. eigenvalues --   -0.15884
 Alpha virt. eigenvalues --   -0.09063   0.12531   0.25784   0.30794   0.45857
 Alpha virt. eigenvalues --    0.58990

 Mulliken charges:
               1
     1  H   -0.095700
     2  H    0.029253
     3  H    0.066828
     4  H   -0.086177
     5  H    0.010210
     6  H    0.075587
     7  H    0.075587
     8  H    0.010210
     9  H   -0.086177
    10  H    0.066828
    11  H    0.029253
    12  H   -0.095700
 Sum of Mulliken charges =  -0.00000

 Dipole moment (field-independent basis, Debye):
    X=              0.0000    Y=             -0.0000    Z=             -0.0000  Tot=              0.0000
 Quadrupole moment (field-independent basis, Debye-Ang):
   XX=            -26.7172   YY=            -17.4114   ZZ=            -15.2719
   XY=             -4.3531   XZ=              0.0000   YZ=              0.0000

 Normal termination of Gaussian 09 at Fri Feb 17 14:00:26 2017.
