 Gaussian 09, Revision E.01,
 Gaussian 09:  ES64L-G09RevE.01 30-Nov-2015

 ----------------------------------------------------------------------
 #rhf/gen scf(symm,tight,novaracc,noincfock,fulldiag) stable(crhf) gues
 s=read geom=nocrowd test
 ----------------------------------------------------------------------

 hf stability analysis of h10 triangular lattice, y= 0.7598357022583297
 5
 ----------------------------------------------------------------------
 Symbolic Z-matrix:
 Charge =  0 Multiplicity = 1

                         Standard orientation:
 ---------------------------------------------------------------------
 Center     Atomic      Atomic             Coordinates (Angstroms)
 Number     Number       Type             X           Y           Z
 ---------------------------------------------------------------------
      1          1           0        0.000000    0.537285    2.686425
      2          1           0       -0.000000   -0.537285    2.686425
      3          1           0        0.000000    0.537285    1.611855
      4          1           0       -0.000000   -0.537285    1.611855
      5          1           0        0.000000    0.537285    0.537285
      6          1           0       -0.000000   -0.537285    0.537285
      7          1           0        0.000000    0.537285   -0.537285
      8          1           0       -0.000000   -0.537285   -0.537285
      9          1           0        0.000000    0.537285   -1.611855
     10          1           0       -0.000000   -0.537285   -1.611855
     11          1           0        0.000000    0.537285   -2.686425
     12          1           0       -0.000000   -0.537285   -2.686425
 ---------------------------------------------------------------------

 SCF Done:  E(RHF) =  -5.35214770034     A.U. after    5 cycles
 E2 =    -0.3110627060D+00 EUMP2 =    -0.56632104063761D+01

 The electronic state is 1-AG.
 Alpha  occ. eigenvalues --   -0.90410  -0.77720  -0.62809  -0.44186  -0.26347
 Alpha  occ. eigenvalues --   -0.16013
 Alpha virt. eigenvalues --   -0.21865   0.09509   0.32580   0.32987   0.64651
 Alpha virt. eigenvalues --    0.92882

 Mulliken charges:
               1
     1  H   -0.044762
     2  H   -0.044762
     3  H   -0.106968
     4  H   -0.106968
     5  H    0.151730
     6  H    0.151730
     7  H    0.151730
     8  H    0.151730
     9  H   -0.106968
    10  H   -0.106968
    11  H   -0.044762
    12  H   -0.044762
 Sum of Mulliken charges =  -0.00000

 Dipole moment (field-independent basis, Debye):
    X=             -0.0000    Y=             -0.0000    Z=              0.0000  Tot=              0.0000
 Quadrupole moment (field-independent basis, Debye-Ang):
   XX=            -14.8090   YY=            -14.1981   ZZ=            -33.9779
   XY=              0.0000   XZ=              0.0000   YZ=              0.0000

 Normal termination of Gaussian 09 at Fri Feb 17 13:56:22 2017.
