 Gaussian 09, Revision E.01,
 Gaussian 09:  ES64L-G09RevE.01 30-Nov-2015

 ----------------------------------------------------------------------
 #rhf/gen scf(symm,tight,novaracc,noincfock,fulldiag) stable(crhf) gues
 s=read geom=nocrowd test
 ----------------------------------------------------------------------

 hf stability analysis of h10 triangular lattice, y= 0.3650915174764740
 0
 ----------------------------------------------------------------------
 Symbolic Z-matrix:
 Charge =  0 Multiplicity = 1

                         Standard orientation:
 ---------------------------------------------------------------------
 Center     Atomic      Atomic             Coordinates (Angstroms)
 Number     Number       Type             X           Y           Z
 ---------------------------------------------------------------------
      1          1           0        3.162770    1.095275   -0.000000
      2          1           0        4.744155    0.730183   -0.000000
      3          1           0        1.581385    0.730183   -0.000000
      4          1           0        3.162770    0.365092   -0.000000
      5          1           0        0.000000    0.365092   -0.000000
      6          1           0        1.581385    0.000000   -0.000000
      7          1           0       -1.581385    0.000000   -0.000000
      8          1           0       -0.000000   -0.365092   -0.000000
      9          1           0       -3.162770   -0.365092   -0.000000
     10          1           0       -1.581385   -0.730183   -0.000000
     11          1           0       -4.744155   -0.730183   -0.000000
     12          1           0       -3.162770   -1.095275   -0.000000
 ---------------------------------------------------------------------

 SCF Done:  E(RHF) =  -5.94238583568     A.U. after    6 cycles
 E2 =    -0.7458734202D+00 EUMP2 =    -0.66882592558640D+01

 The electronic state is 1-AG.
 Alpha  occ. eigenvalues --   -0.75448  -0.72092  -0.65684  -0.57410  -0.48113
 Alpha  occ. eigenvalues --   -0.15322
 Alpha virt. eigenvalues --   -0.09867   0.23913   0.30601   0.41997   0.55335
 Alpha virt. eigenvalues --    0.67154

 Mulliken charges:
               1
     1  H    0.015062
     2  H   -0.054417
     3  H    0.000772
     4  H    0.031269
     5  H    0.000230
     6  H    0.007085
     7  H    0.007085
     8  H    0.000230
     9  H    0.031269
    10  H    0.000772
    11  H   -0.054417
    12  H    0.015062
 Sum of Mulliken charges =  -0.00000

 Dipole moment (field-independent basis, Debye):
    X=              0.0000    Y=              0.0000    Z=              0.0000  Tot=              0.0000
 Quadrupole moment (field-independent basis, Debye-Ang):
   XX=            -29.3394   YY=            -13.6383   ZZ=            -15.4450
   XY=             -2.1617   XZ=              0.0000   YZ=              0.0000

 Normal termination of Gaussian 09 at Fri Feb 17 13:49:52 2017.
