 Gaussian 09, Revision E.01,
 Gaussian 09:  ES64L-G09RevE.01 30-Nov-2015

 ----------------------------------------------------------------------
 #rhf/gen scf(tight,novaracc,noincfock,fulldiag) stable(crhf) guess=mix
  geom=nocrowd test
 ----------------------------------------------------------------------

 hf stability analysis of h10 triangular lattice, y= 0.7337491795890599
 4
 ----------------------------------------------------------------------
 Symbolic Z-matrix:
 Charge =  0 Multiplicity = 1

                         Standard orientation:
 ---------------------------------------------------------------------
 Center     Atomic      Atomic             Coordinates (Angstroms)
 Number     Number       Type             X           Y           Z
 ---------------------------------------------------------------------
      1          1           0        2.146521    0.387841    0.000000
      2          1           0        2.146521   -0.688040    0.000000
      3          1           0        1.073260    0.462891    0.000000
      4          1           0        1.073260   -0.612990    0.000000
      5          1           0       -0.000000    0.537941    0.000000
      6          1           0       -0.000000   -0.537941   -0.000000
      7          1           0       -1.073260    0.612990    0.000000
      8          1           0       -1.073260   -0.462891    0.000000
      9          1           0       -2.146521    0.688040    0.000000
     10          1           0       -2.146521   -0.387841    0.000000
 ---------------------------------------------------------------------

 SCF Done:  E(RHF) =  -4.83136582777     A.U. after   24 cycles
 E2 =    -0.9541659122D-01 EUMP2 =    -0.49267824189916D+01

 Unable to determine electronic state:  partially filled degenerate orbitals.
 Alpha  occ. eigenvalues --   -0.86770  -0.73824  -0.53816  -0.42394  -0.27089
 Alpha virt. eigenvalues --   -0.04941   0.19276   0.34530   0.51706   0.91096

 Mulliken charges:
               1
     1  H    0.286505
     2  H   -0.241766
     3  H   -0.309268
     4  H    0.245599
     5  H    0.123958
     6  H   -0.108990
     7  H   -0.278196
     8  H    0.224269
     9  H    0.254427
    10  H   -0.196538
 Sum of Mulliken charges =  -0.00000

 Dipole moment (field-independent basis, Debye):
    X=             -0.1858    Y=              0.4131    Z=              0.0000  Tot=              0.4530
 Quadrupole moment (field-independent basis, Debye-Ang):
   XX=            -14.2290   YY=            -14.5916   ZZ=            -12.8435
   XY=              0.2889   XZ=              0.0000   YZ=              0.0000

 Normal termination of Gaussian 09 at Mon Feb 13 14:08:36 2017.
