 Gaussian 09, Revision E.01,
 Gaussian 09:  ES64L-G09RevE.01 30-Nov-2015

 ----------------------------------------------------------------------
 #rhf/gen scf(tight,novaracc,noincfock,fulldiag) stable(crhf) guess=mix
  geom=nocrowd test
 ----------------------------------------------------------------------

 hf stability analysis of h10 triangular lattice, y= 0.7598357022583297
 5
 ----------------------------------------------------------------------
 Symbolic Z-matrix:
 Charge =  0 Multiplicity = 1

                         Standard orientation:
 ---------------------------------------------------------------------
 Center     Atomic      Atomic             Coordinates (Angstroms)
 Number     Number       Type             X           Y           Z
 ---------------------------------------------------------------------
      1          1           0        0.000000    2.149140    0.537285
      2          1           0        0.000000    2.149140   -0.537285
      3          1           0        0.000000    1.074570    0.537285
      4          1           0        0.000000    1.074570   -0.537285
      5          1           0        0.000000    0.000000    0.537285
      6          1           0        0.000000   -0.000000   -0.537285
      7          1           0       -0.000000   -1.074570    0.537285
      8          1           0       -0.000000   -1.074570   -0.537285
      9          1           0       -0.000000   -2.149140    0.537285
     10          1           0       -0.000000   -2.149140   -0.537285
 ---------------------------------------------------------------------

 SCF Done:  E(RHF) =  -4.88666504101     A.U. after   19 cycles
 E2 =    -0.1049694155D+00 EUMP2 =    -0.49916344565141D+01

 The electronic state is 1-AG.
 Alpha  occ. eigenvalues --   -0.87771  -0.74531  -0.52638  -0.46877  -0.31224
 Alpha virt. eigenvalues --   -0.01292   0.15323   0.36835   0.51280   0.90374

 Mulliken charges:
               1
     1  H    0.040484
     2  H    0.040484
     3  H   -0.033391
     4  H   -0.033391
     5  H   -0.014186
     6  H   -0.014186
     7  H   -0.033391
     8  H   -0.033391
     9  H    0.040484
    10  H    0.040484
 Sum of Mulliken charges =   0.00000

 Dipole moment (field-independent basis, Debye):
    X=             -0.0000    Y=             -0.0000    Z=             -0.0000  Tot=              0.0000
 Quadrupole moment (field-independent basis, Debye-Ang):
   XX=            -12.9543   YY=            -10.0641   ZZ=            -17.4088
   XY=              0.0000   XZ=              0.0000   YZ=              0.0000

 Normal termination of Gaussian 09 at Mon Feb 13 14:09:41 2017.
