 Gaussian 09, Revision E.01,
 Gaussian 09:  ES64L-G09RevE.01 30-Nov-2015

 ----------------------------------------------------------------------
 #rhf/gen scf(tight,novaracc,noincfock,fulldiag) stable(crhf) guess=mix
  geom=nocrowd test
 ----------------------------------------------------------------------

 hf stability analysis of h10 triangular lattice, y= 0.3794068973118231
 4
 ----------------------------------------------------------------------
 Symbolic Z-matrix:
 Charge =  0 Multiplicity = 1

                         Standard orientation:
 ---------------------------------------------------------------------
 Center     Atomic      Atomic             Coordinates (Angstroms)
 Number     Number       Type             X           Y           Z
 ---------------------------------------------------------------------
      1          1           0        1.472548   -1.985307    0.000000
      2          1           0        1.472548   -3.553611    0.000000
      3          1           0        0.736274   -0.600578    0.000000
      4          1           0        0.736274   -2.168881    0.000000
      5          1           0       -0.000000    0.784152   -0.000000
      6          1           0       -0.000000   -0.784152   -0.000000
      7          1           0       -0.736274    2.168881    0.000000
      8          1           0       -0.736274    0.600578    0.000000
      9          1           0       -1.472548    3.553611    0.000000
     10          1           0       -1.472548    1.985307    0.000000
 ---------------------------------------------------------------------

 SCF Done:  E(RHF) =  -4.89257618678     A.U. after   16 cycles
 E2 =    -0.4383562667D+00 EUMP2 =    -0.53309324534638D+01

 The electronic state is 1-AG.
 Alpha  occ. eigenvalues --   -0.77483  -0.71209  -0.61285  -0.48933  -0.15180
 Alpha virt. eigenvalues --   -0.06669   0.20190   0.30926   0.46797   0.62232

 Mulliken charges:
               1
     1  H    0.028884
     2  H   -0.105125
     3  H    0.012148
     4  H    0.044950
     5  H    0.019142
     6  H    0.019142
     7  H    0.044950
     8  H    0.012148
     9  H   -0.105125
    10  H    0.028884
 Sum of Mulliken charges =   0.00000

 Dipole moment (field-independent basis, Debye):
    X=             -0.0000    Y=              0.0000    Z=             -0.0000  Tot=              0.0000
 Quadrupole moment (field-independent basis, Debye-Ang):
   XX=            -13.5797   YY=            -26.9390   ZZ=            -12.9212
   XY=              6.2849   XZ=              0.0000   YZ=             -0.0000

 Normal termination of Gaussian 09 at Mon Feb 13 14:09:25 2017.
