 Gaussian 09, Revision E.01,
 Gaussian 09:  ES64L-G09RevE.01 30-Nov-2015

 ----------------------------------------------------------------------
 #rhf/gen scf(tight,novaracc,noincfock,fulldiag) stable(crhf) guess=mix
  geom=nocrowd test
 ----------------------------------------------------------------------

 hf stability analysis of h10 triangular lattice, y= 0.4829747999860826
 7
 ----------------------------------------------------------------------
 Symbolic Z-matrix:
 Charge =  0 Multiplicity = 1

                         Standard orientation:
 ---------------------------------------------------------------------
 Center     Atomic      Atomic             Coordinates (Angstroms)
 Number     Number       Type             X           Y           Z
 ---------------------------------------------------------------------
      1          1           0        1.791226   -1.210226   -0.000000
      2          1           0        1.791226   -2.499511   -0.000000
      3          1           0        0.895613   -0.282792   -0.000000
      4          1           0        0.895613   -1.572077   -0.000000
      5          1           0        0.000000    0.644643    0.000000
      6          1           0       -0.000000   -0.644643    0.000000
      7          1           0       -0.895613    1.572077   -0.000000
      8          1           0       -0.895613    0.282792   -0.000000
      9          1           0       -1.791226    2.499511   -0.000000
     10          1           0       -1.791226    1.210226   -0.000000
 ---------------------------------------------------------------------

 SCF Done:  E(RHF) =  -4.78937776014     A.U. after   17 cycles
 E2 =    -0.1266811999D+00 EUMP2 =    -0.49160589600869D+01

 The electronic state is 1-AG.
 Alpha  occ. eigenvalues --   -0.79410  -0.72596  -0.55257  -0.33683  -0.21301
 Alpha virt. eigenvalues --    0.02640   0.14207   0.20381   0.39877   0.61996

 Mulliken charges:
               1
     1  H    0.085270
     2  H    0.014355
     3  H   -0.100088
     4  H    0.111296
     5  H   -0.110833
     6  H   -0.110833
     7  H    0.111296
     8  H   -0.100088
     9  H    0.014355
    10  H    0.085270
 Sum of Mulliken charges =   0.00000

 Dipole moment (field-independent basis, Debye):
    X=              0.0000    Y=             -0.0000    Z=             -0.0000  Tot=              0.0000
 Quadrupole moment (field-independent basis, Debye-Ang):
   XX=            -11.6609   YY=            -10.5895   ZZ=            -13.1649
   XY=             -3.6849   XZ=              0.0000   YZ=             -0.0000

 Normal termination of Gaussian 09 at Mon Feb 13 14:09:12 2017.
