 Gaussian 09, Revision E.01,
 Gaussian 09:  ES64L-G09RevE.01 30-Nov-2015

 ----------------------------------------------------------------------
 #rhf/gen scf(tight,novaracc,noincfock,fulldiag) stable(crhf) guess=mix
  geom=nocrowd test
 ----------------------------------------------------------------------

 hf stability analysis of h10 triangular lattice, y= 0.6716215332591580
 8
 ----------------------------------------------------------------------
 Symbolic Z-matrix:
 Charge =  0 Multiplicity = 1

                         Standard orientation:
 ---------------------------------------------------------------------
 Center     Atomic      Atomic             Coordinates (Angstroms)
 Number     Number       Type             X           Y           Z
 ---------------------------------------------------------------------
      1          1           0        2.116980    0.017625    0.000000
      2          1           0        2.116980   -1.073269    0.000000
      3          1           0        1.058490    0.281536    0.000000
      4          1           0        1.058490   -0.809358    0.000000
      5          1           0       -0.000000    0.545447   -0.000000
      6          1           0       -0.000000   -0.545447   -0.000000
      7          1           0       -1.058490    0.809358    0.000000
      8          1           0       -1.058490   -0.281536    0.000000
      9          1           0       -2.116980    1.073269    0.000000
     10          1           0       -2.116980   -0.017625    0.000000
 ---------------------------------------------------------------------

 SCF Done:  E(RHF) =  -4.83423659416     A.U. after   22 cycles
 E2 =    -0.9533143844D-01 EUMP2 =    -0.49295680325977D+01

 Unable to determine electronic state:  partially filled degenerate orbitals.
 Alpha  occ. eigenvalues --   -0.86554  -0.73959  -0.53793  -0.42059  -0.27310
 Alpha virt. eigenvalues --   -0.04904   0.19529   0.32168   0.52572   0.82440

 Mulliken charges:
               1
     1  H   -0.168214
     2  H    0.249949
     3  H    0.210118
     4  H   -0.244625
     5  H   -0.100275
     6  H    0.085470
     7  H    0.244979
     8  H   -0.318571
     9  H   -0.262101
    10  H    0.303270
 Sum of Mulliken charges =  -0.00000

 Dipole moment (field-independent basis, Debye):
    X=              0.6112    Y=             -0.5480    Z=              0.0000  Tot=              0.8209
 Quadrupole moment (field-independent basis, Debye-Ang):
   XX=            -12.9100   YY=            -15.4857   ZZ=            -12.8961
   XY=              0.0144   XZ=              0.0000   YZ=             -0.0000

 Normal termination of Gaussian 09 at Mon Feb 13 14:08:45 2017.
