 Gaussian 09, Revision E.01,
 Gaussian 09:  ES64L-G09RevE.01 30-Nov-2015

 ----------------------------------------------------------------------
 #rhf/gen scf(tight,novaracc,noincfock,fulldiag) stable(crhf) guess=mix
  geom=nocrowd test
 ----------------------------------------------------------------------

 hf stability analysis of h10 triangular lattice, y= 0.6358183901871248
 3
 ----------------------------------------------------------------------
 Symbolic Z-matrix:
 Charge =  0 Multiplicity = 1

                         Standard orientation:
 ---------------------------------------------------------------------
 Center     Atomic      Atomic             Coordinates (Angstroms)
 Number     Number       Type             X           Y           Z
 ---------------------------------------------------------------------
      1          1           0        2.083328   -0.204012    0.000000
      2          1           0        2.083328   -1.312527    0.000000
      3          1           0        1.041664    0.175123    0.000000
      4          1           0        1.041664   -0.933392    0.000000
      5          1           0        0.000000    0.554258   -0.000000
      6          1           0       -0.000000   -0.554258   -0.000000
      7          1           0       -1.041664    0.933392    0.000000
      8          1           0       -1.041664   -0.175123   -0.000000
      9          1           0       -2.083328    1.312527    0.000000
     10          1           0       -2.083328    0.204012    0.000000
 ---------------------------------------------------------------------

 SCF Done:  E(RHF) =  -4.82444068817     A.U. after   29 cycles
 E2 =    -0.1021794736D+00 EUMP2 =    -0.49266201618078D+01

 Unable to determine electronic state:  partially filled degenerate orbitals.
 Alpha  occ. eigenvalues --   -0.86263  -0.73783  -0.53530  -0.42375  -0.27450
 Alpha virt. eigenvalues --   -0.04797   0.19624   0.29718   0.53749   0.73772

 Mulliken charges:
               1
     1  H   -0.173470
     2  H    0.262419
     3  H    0.149019
     4  H   -0.180690
     5  H   -0.043309
     6  H    0.022656
     7  H    0.148094
     8  H   -0.237284
     9  H   -0.132517
    10  H    0.185081
 Sum of Mulliken charges =  -0.00000

 Dipole moment (field-independent basis, Debye):
    X=              0.6519    Y=             -0.5151    Z=              0.0000  Tot=              0.8309
 Quadrupole moment (field-independent basis, Debye-Ang):
   XX=            -11.5575   YY=            -15.4380   ZZ=            -12.9520
   XY=             -2.6127   XZ=              0.0000   YZ=             -0.0000

 Normal termination of Gaussian 09 at Mon Feb 13 14:08:50 2017.
