 Gaussian 09, Revision E.01,
 Gaussian 09:  ES64L-G09RevE.01 30-Nov-2015

 ----------------------------------------------------------------------
 #rhf/gen scf(symm,tight,novaracc,noincfock,fulldiag) stable(crhf) gues
 s=read geom=nocrowd test
 ----------------------------------------------------------------------

 ----------------------------------------------------------------------
 hf stability analysis of h12 triangular lattice, y= 2.5066432657105051
 ----------------------------------------------------------------------
 Symbolic Z-matrix:
 Charge =  0 Multiplicity = 1

                         Standard orientation:
 ---------------------------------------------------------------------
 Center     Atomic      Atomic             Coordinates (Angstroms)
 Number     Number       Type             X           Y           Z
 ---------------------------------------------------------------------
      1          1           0        0.458724    6.250857   -0.000000
      2          1           0        0.000000    3.775805    0.000000
      3          1           0        0.458724    3.733654   -0.000000
      4          1           0        0.000000    1.258602    0.000000
      5          1           0       -0.458724    1.300752    0.000000
      6          1           0       -0.458724   -1.216451    0.000000
      7          1           0       -0.458724   -3.733654   -0.000000
      8          1           0       -0.000000   -1.258602   -0.000000
      9          1           0        0.458724    1.216451    0.000000
     10          1           0        0.458724   -1.300752    0.000000
     11          1           0       -0.000000   -3.775805   -0.000000
     12          1           0       -0.458724   -6.250857   -0.000000
 ---------------------------------------------------------------------

 SCF Done:  E(RHF) =  -4.24435020311     A.U. after   13 cycles
 E2 =    -0.7277422319D+00 EUMP2 =    -0.49720924350218D+01

 The electronic state is 1-AG.
 Alpha  occ. eigenvalues --   -1.02356  -1.02130  -0.73754  -0.73753  -0.21730
 Alpha  occ. eigenvalues --   -0.17716
 Alpha virt. eigenvalues --   -0.12721   0.01043   0.64681   0.64774   1.48590
 Alpha virt. eigenvalues --    1.58235

 Mulliken charges:
               1
     1  H   -0.144340
     2  H   -0.001618
     3  H   -0.001478
     4  H   -0.767926
     5  H    0.455906
     6  H    0.459457
     7  H   -0.001478
     8  H   -0.767926
     9  H    0.459457
    10  H    0.455906
    11  H   -0.001618
    12  H   -0.144340
 Sum of Mulliken charges =  -0.00000

 Dipole moment (field-independent basis, Debye):
    X=              0.0000    Y=             -0.0000    Z=              0.0000  Tot=              0.0000
 Quadrupole moment (field-independent basis, Debye-Ang):
   XX=            -16.3381   YY=            -68.8220   ZZ=            -15.5834
   XY=             -4.1475   XZ=              0.0000   YZ=             -0.0000

 Normal termination of Gaussian 09 at Fri Feb 17 15:09:49 2017.
