 Gaussian 09, Revision E.01,
 Gaussian 09:  ES64L-G09RevE.01 30-Nov-2015

 ----------------------------------------------------------------------
 #rhf/gen scf(symm,tight,novaracc,noincfock,fulldiag) stable(crhf) gues
 s=read geom=nocrowd test
 ----------------------------------------------------------------------

 hf stability analysis of h10 triangular lattice, y= 0.9428899751596989
 7
 ----------------------------------------------------------------------
 Symbolic Z-matrix:
 Charge =  0 Multiplicity = 1

                         Standard orientation:
 ---------------------------------------------------------------------
 Center     Atomic      Atomic             Coordinates (Angstroms)
 Number     Number       Type             X           Y           Z
 ---------------------------------------------------------------------
      1          1           0        0.000000    0.612320    1.885780
      2          1           0        0.000000    1.224640    0.942890
      3          1           0        0.000000    0.000000    0.942890
      4          1           0        0.000000    0.612320    0.000000
      5          1           0        0.000000   -0.000000   -0.942890
      6          1           0       -0.000000   -0.612320   -1.885780
      7          1           0       -0.000000   -0.612320   -0.000000
      8          1           0       -0.000000   -1.224640   -0.942890
      9          1           0       -0.000000   -0.612320    1.885780
     10          1           0       -0.000000   -1.224640    0.942890
     11          1           0        0.000000    1.224640   -0.942890
     12          1           0        0.000000    0.612320   -1.885780
 ---------------------------------------------------------------------

 SCF Done:  E(RHF) =  -5.74321299707     A.U. after   10 cycles
 E2 =    -0.1338566443D+00 EUMP2 =    -0.58770696413771D+01

 The electronic state is 1-AG.
 Alpha  occ. eigenvalues --   -0.96997  -0.78412  -0.63419  -0.51104  -0.43678
 Alpha  occ. eigenvalues --   -0.18669
 Alpha virt. eigenvalues --    0.05982   0.12819   0.22873   0.41337   0.52886
 Alpha virt. eigenvalues --    0.60379

 Mulliken charges:
               1
     1  H   -0.088141
     2  H    0.046452
     3  H    0.057592
     4  H    0.025787
     5  H    0.057592
     6  H   -0.088141
     7  H    0.025787
     8  H    0.046452
     9  H   -0.088141
    10  H    0.046452
    11  H    0.046452
    12  H   -0.088141
 Sum of Mulliken charges =   0.00000

 Dipole moment (field-independent basis, Debye):
    X=             -0.0000    Y=             -0.0000    Z=              0.0000  Tot=              0.0000
 Quadrupole moment (field-independent basis, Debye-Ang):
   XX=            -15.1292   YY=            -14.8496   ZZ=            -26.7115
   XY=              0.0000   XZ=              0.0000   YZ=             -0.0000

 Normal termination of Gaussian 09 at Sat Feb 18 12:43:02 2017.
