 Gaussian 09, Revision E.01,
 Gaussian 09:  ES64L-G09RevE.01 30-Nov-2015

 ----------------------------------------------------------------------
 #rhf/gen scf(symm,tight,novaracc,noincfock,fulldiag) stable(crhf) gues
 s=read geom=nocrowd test
 ----------------------------------------------------------------------

 hf stability analysis of h10 triangular lattice, y= 0.8596363675198261
 9
 ----------------------------------------------------------------------
 Symbolic Z-matrix:
 Charge =  0 Multiplicity = 1

                         Standard orientation:
 ---------------------------------------------------------------------
 Center     Atomic      Atomic             Coordinates (Angstroms)
 Number     Number       Type             X           Y           Z
 ---------------------------------------------------------------------
      1          1           0        0.000000    0.671622    1.719273
      2          1           0        0.000000    1.343243    0.859636
      3          1           0        0.000000    0.000000    0.859636
      4          1           0        0.000000    0.671622    0.000000
      5          1           0        0.000000    0.000000   -0.859636
      6          1           0       -0.000000   -0.671622   -1.719273
      7          1           0       -0.000000   -0.671622    0.000000
      8          1           0       -0.000000   -1.343243   -0.859636
      9          1           0       -0.000000   -0.671622    1.719273
     10          1           0       -0.000000   -1.343243    0.859636
     11          1           0        0.000000    1.343243   -0.859636
     12          1           0        0.000000    0.671622   -1.719273
 ---------------------------------------------------------------------

 SCF Done:  E(RHF) =  -5.49767524547     A.U. after   15 cycles
 E2 =    -0.1812171849D+00 EUMP2 =    -0.56788924303674D+01

 The electronic state is 1-AG.
 Alpha  occ. eigenvalues --   -0.98683  -0.77749  -0.65711  -0.47085  -0.44400
 Alpha  occ. eigenvalues --   -0.08352
 Alpha virt. eigenvalues --   -0.02389   0.10795   0.18086   0.40453   0.52308
 Alpha virt. eigenvalues --    0.70028

 Mulliken charges:
               1
     1  H   -0.020562
     2  H   -0.031769
     3  H    0.164369
     4  H   -0.059708
     5  H    0.164369
     6  H   -0.020562
     7  H   -0.059708
     8  H   -0.031769
     9  H   -0.020562
    10  H   -0.031769
    11  H   -0.031769
    12  H   -0.020562
 Sum of Mulliken charges =  -0.00000

 Dipole moment (field-independent basis, Debye):
    X=              0.0000    Y=              0.0000    Z=             -0.0000  Tot=              0.0000
 Quadrupole moment (field-independent basis, Debye-Ang):
   XX=            -14.8763   YY=            -17.9157   ZZ=            -22.2233
   XY=             -0.0000   XZ=              0.0000   YZ=              0.0000

 Normal termination of Gaussian 09 at Sat Feb 18 12:42:51 2017.
