 Gaussian 09, Revision E.01,
 Gaussian 09:  ES64L-G09RevE.01 30-Nov-2015

 ----------------------------------------------------------------------
 #rhf/gen scf(symm,tight,novaracc,noincfock,fulldiag) stable(crhf) gues
 s=read geom=nocrowd test
 ----------------------------------------------------------------------

 hf stability analysis of h10 triangular lattice, y= 0.5070038553873883
 5
 ----------------------------------------------------------------------
 Symbolic Z-matrix:
 Charge =  0 Multiplicity = 1

                         Standard orientation:
 ---------------------------------------------------------------------
 Center     Atomic      Atomic             Coordinates (Angstroms)
 Number     Number       Type             X           Y           Z
 ---------------------------------------------------------------------
      1          1           0       -0.000000    1.014008    1.138749
      2          1           0       -0.000000    0.507004    2.277499
      3          1           0       -0.000000    0.507004    0.000000
      4          1           0       -0.000000    0.000000    1.138749
      5          1           0       -0.000000   -0.507004    0.000000
      6          1           0       -0.000000   -1.014008   -1.138749
      7          1           0        0.000000    0.000000   -1.138749
      8          1           0       -0.000000   -0.507004   -2.277499
      9          1           0        0.000000    1.014008   -1.138749
     10          1           0        0.000000    0.507004   -2.277499
     11          1           0       -0.000000   -0.507004    2.277499
     12          1           0       -0.000000   -1.014008    1.138749
 ---------------------------------------------------------------------

 SCF Done:  E(RHF) =  -5.41979260863     A.U. after   12 cycles
 E2 =    -0.1539031284D+00 EUMP2 =    -0.55736957370765D+01

 The electronic state is 1-AG.
 Alpha  occ. eigenvalues --   -0.91431  -0.80517  -0.53615  -0.53352  -0.42554
 Alpha  occ. eigenvalues --   -0.05619
 Alpha virt. eigenvalues --   -0.10793   0.19033   0.32515   0.33904   0.38682
 Alpha virt. eigenvalues --    0.63058

 Mulliken charges:
               1
     1  H    0.090816
     2  H   -0.041500
     3  H   -0.242377
     4  H    0.143746
     5  H   -0.242377
     6  H    0.090816
     7  H    0.143746
     8  H   -0.041500
     9  H    0.090816
    10  H   -0.041500
    11  H   -0.041500
    12  H    0.090816
 Sum of Mulliken charges =  -0.00000

 Dipole moment (field-independent basis, Debye):
    X=              0.0000    Y=              0.0000    Z=             -0.0000  Tot=              0.0000
 Quadrupole moment (field-independent basis, Debye-Ang):
   XX=            -15.1287   YY=            -19.5214   ZZ=            -16.9011
   XY=             -0.0000   XZ=              0.0000   YZ=             -0.0000

 Normal termination of Gaussian 09 at Sat Feb 18 12:41:48 2017.
