 Gaussian 09, Revision E.01,
 Gaussian 09:  ES64L-G09RevE.01 30-Nov-2015

 ----------------------------------------------------------------------
 #rhf/gen scf(symm,tight,novaracc,noincfock,fulldiag) stable(crhf) gues
 s=read geom=nocrowd test
 ----------------------------------------------------------------------

 hf stability analysis of h10 triangular lattice, y= 0.3190649348779894
 3
 ----------------------------------------------------------------------
 Symbolic Z-matrix:
 Charge =  0 Multiplicity = 1

                         Standard orientation:
 ---------------------------------------------------------------------
 Center     Atomic      Atomic             Coordinates (Angstroms)
 Number     Number       Type             X           Y           Z
 ---------------------------------------------------------------------
      1          1           0        0.000000    0.638130    1.809507
      2          1           0        0.000000    0.319065    3.619014
      3          1           0        0.000000    0.319065    0.000000
      4          1           0        0.000000    0.000000    1.809507
      5          1           0       -0.000000   -0.319065    0.000000
      6          1           0       -0.000000   -0.638130   -1.809507
      7          1           0        0.000000    0.000000   -1.809507
      8          1           0       -0.000000   -0.319065   -3.619014
      9          1           0        0.000000    0.638130   -1.809507
     10          1           0        0.000000    0.319065   -3.619014
     11          1           0       -0.000000   -0.319065    3.619014
     12          1           0       -0.000000   -0.638130    1.809507
 ---------------------------------------------------------------------

 SCF Done:  E(RHF) =  -3.41223708936     A.U. after   17 cycles
 E2 =    -0.5372728810D+00 EUMP2 =    -0.39495099703221D+01

 The electronic state is 1-AG.
 Alpha  occ. eigenvalues --   -0.79935  -0.77131  -0.60134  -0.27226  -0.24698
 Alpha  occ. eigenvalues --    0.16460
 Alpha virt. eigenvalues --   -0.38431  -0.33744   0.26284   0.53650   1.07276
 Alpha virt. eigenvalues --    1.08320

 Mulliken charges:
               1
     1  H   -0.202498
     2  H    0.184148
     3  H    0.070958
     4  H   -0.034258
     5  H    0.070958
     6  H   -0.202498
     7  H   -0.034258
     8  H    0.184148
     9  H   -0.202498
    10  H    0.184148
    11  H    0.184148
    12  H   -0.202498
 Sum of Mulliken charges =   0.00000

 Dipole moment (field-independent basis, Debye):
    X=              0.0000    Y=             -0.0000    Z=             -0.0000  Tot=              0.0000
 Quadrupole moment (field-independent basis, Debye-Ang):
   XX=            -14.7373   YY=            -24.0040   ZZ=             19.5371
   XY=             -0.0000   XZ=             -0.0000   YZ=             -0.0000

 Normal termination of Gaussian 09 at Sat Feb 18 12:41:17 2017.
