 Gaussian 09, Revision E.01,
 Gaussian 09:  ES64L-G09RevE.01 30-Nov-2015

 ----------------------------------------------------------------------
 #rhf/gen scf(symm,tight,novaracc,noincfock,fulldiag) stable(crhf) gues
 s=read geom=nocrowd test
 ----------------------------------------------------------------------

 hf stability analysis of h10 triangular lattice, y= 0.6837609579800398
 9
 ----------------------------------------------------------------------
 Symbolic Z-matrix:
 Charge =  0 Multiplicity = 1

                         Standard orientation:
 ---------------------------------------------------------------------
 Center     Atomic      Atomic             Coordinates (Angstroms)
 Number     Number       Type             X           Y           Z
 ---------------------------------------------------------------------
      1          1           0        0.000000    1.367522    0.844374
      2          1           0       -0.000000    0.683761    1.688749
      3          1           0        0.000000    0.683761   -0.000000
      4          1           0        0.000000    0.000000    0.844374
      5          1           0       -0.000000   -0.683761    0.000000
      6          1           0       -0.000000   -1.367522   -0.844374
      7          1           0        0.000000   -0.000000   -0.844374
      8          1           0       -0.000000   -0.683761   -1.688749
      9          1           0        0.000000    1.367522   -0.844374
     10          1           0        0.000000    0.683761   -1.688749
     11          1           0       -0.000000   -0.683761    1.688749
     12          1           0       -0.000000   -1.367522    0.844374
 ---------------------------------------------------------------------

 SCF Done:  E(RHF) =  -5.59353227267     A.U. after   16 cycles
 E2 =    -0.1048414790D+00 EUMP2 =    -0.56983737517115D+01

 The electronic state is 1-AG.
 Alpha  occ. eigenvalues --   -0.94223  -0.73416  -0.67419  -0.47057  -0.41991
 Alpha  occ. eigenvalues --   -0.13045
 Alpha virt. eigenvalues --   -0.02586   0.16285   0.24368   0.42380   0.51345
 Alpha virt. eigenvalues --    0.79108

 Mulliken charges:
               1
     1  H    0.265227
     2  H   -0.217278
     3  H   -0.386293
     4  H    0.290395
     5  H   -0.386293
     6  H    0.265227
     7  H    0.290395
     8  H   -0.217278
     9  H    0.265227
    10  H   -0.217278
    11  H   -0.217278
    12  H    0.265227
 Sum of Mulliken charges =  -0.00000

 Dipole moment (field-independent basis, Debye):
    X=             -0.0000    Y=              0.0000    Z=             -0.0000  Tot=              0.0000
 Quadrupole moment (field-independent basis, Debye-Ang):
   XX=            -14.8780   YY=            -11.3472   ZZ=            -26.8180
   XY=              0.0000   XZ=              0.0000   YZ=              0.0000

 Normal termination of Gaussian 09 at Sat Feb 18 12:42:20 2017.
