 Gaussian 09, Revision E.01,
 Gaussian 09:  ES64L-G09RevE.01 30-Nov-2015

 ----------------------------------------------------------------------
 #rhf/gen scf(symm,tight,novaracc,noincfock,fulldiag) stable(crhf) gues
 s=read geom=nocrowd test
 ----------------------------------------------------------------------

 hf stability analysis of h10 triangular lattice, y= 0.7210052279144877
 3
 ----------------------------------------------------------------------
 Symbolic Z-matrix:
 Charge =  0 Multiplicity = 1

                         Standard orientation:
 ---------------------------------------------------------------------
 Center     Atomic      Atomic             Coordinates (Angstroms)
 Number     Number       Type             X           Y           Z
 ---------------------------------------------------------------------
      1          1           0        0.000000    1.442010    0.800757
      2          1           0        0.000000    0.721005    1.601515
      3          1           0       -0.000000    0.721005    0.000000
      4          1           0        0.000000   -0.000000    0.800757
      5          1           0       -0.000000   -0.721005   -0.000000
      6          1           0       -0.000000   -1.442010   -0.800757
      7          1           0        0.000000    0.000000   -0.800757
      8          1           0       -0.000000   -0.721005   -1.601515
      9          1           0        0.000000    1.442010   -0.800757
     10          1           0        0.000000    0.721005   -1.601515
     11          1           0       -0.000000   -0.721005    1.601515
     12          1           0       -0.000000   -1.442010    0.800757
 ---------------------------------------------------------------------

 SCF Done:  E(RHF) =  -5.53224803598     A.U. after   21 cycles
 E2 =    -0.1032477459D+00 EUMP2 =    -0.56354957818491D+01

 The electronic state is 1-AG.
 Alpha  occ. eigenvalues --   -0.94068  -0.71300  -0.69084  -0.47438  -0.39123
 Alpha  occ. eigenvalues --   -0.12798
 Alpha virt. eigenvalues --   -0.06816   0.14836   0.30853   0.43118   0.44585
 Alpha virt. eigenvalues --    0.85660

 Mulliken charges:
               1
     1  H    0.274646
     2  H   -0.241588
     3  H   -0.393093
     4  H    0.326977
     5  H   -0.393093
     6  H    0.274646
     7  H    0.326977
     8  H   -0.241588
     9  H    0.274646
    10  H   -0.241588
    11  H   -0.241588
    12  H    0.274646
 Sum of Mulliken charges =  -0.00000

 Dipole moment (field-independent basis, Debye):
    X=             -0.0000    Y=             -0.0000    Z=             -0.0000  Tot=              0.0000
 Quadrupole moment (field-independent basis, Debye-Ang):
   XX=            -14.8305   YY=            -10.0128   ZZ=            -27.5174
   XY=              0.0000   XZ=              0.0000   YZ=             -0.0000

 Normal termination of Gaussian 09 at Sat Feb 18 12:42:27 2017.
