 Gaussian 09, Revision E.01,
 Gaussian 09:  ES64L-G09RevE.01 30-Nov-2015

 ----------------------------------------------------------------------
 #rhf/gen scf(symm,tight,novaracc,noincfock,fulldiag) stable(crhf) gues
 s=read geom=nocrowd test
 ----------------------------------------------------------------------

 hf stability analysis of h10 triangular lattice, y= 0.5773502789032680
 7
 ----------------------------------------------------------------------
 Symbolic Z-matrix:
 Charge =  0 Multiplicity = 1

                         Standard orientation:
 ---------------------------------------------------------------------
 Center     Atomic      Atomic             Coordinates (Angstroms)
 Number     Number       Type             X           Y           Z
 ---------------------------------------------------------------------
      1          1           0        0.000000    1.154701    1.000000
      2          1           0        0.000000    0.577350    2.000000
      3          1           0        0.000000    0.577350    0.000000
      4          1           0       -0.000000    0.000000    1.000000
      5          1           0       -0.000000   -0.577350    0.000000
      6          1           0       -0.000000   -1.154701   -1.000000
      7          1           0        0.000000   -0.000000   -1.000000
      8          1           0       -0.000000   -0.577350   -2.000000
      9          1           0        0.000000    1.154701   -1.000000
     10          1           0        0.000000    0.577350   -2.000000
     11          1           0       -0.000000   -0.577350    2.000000
     12          1           0       -0.000000   -1.154701    1.000000
 ---------------------------------------------------------------------

 SCF Done:  E(RHF) =  -5.61041084065     A.U. after   12 cycles
 E2 =    -0.1314544696D+00 EUMP2 =    -0.57418653102049D+01

 The electronic state is 1-AG.
 Alpha  occ. eigenvalues --   -0.93279  -0.78369  -0.60054  -0.49654  -0.45193
 Alpha  occ. eigenvalues --   -0.10563
 Alpha virt. eigenvalues --    0.02381   0.13238   0.27615   0.37851   0.47374
 Alpha virt. eigenvalues --    0.64113

 Mulliken charges:
               1
     1  H    0.176873
     2  H   -0.115420
     3  H   -0.317734
     4  H    0.194829
     5  H   -0.317734
     6  H    0.176873
     7  H    0.194829
     8  H   -0.115420
     9  H    0.176873
    10  H   -0.115420
    11  H   -0.115420
    12  H    0.176873
 Sum of Mulliken charges =  -0.00000

 Dipole moment (field-independent basis, Debye):
    X=              0.0000    Y=              0.0000    Z=              0.0000  Tot=              0.0000
 Quadrupole moment (field-independent basis, Debye-Ang):
   XX=            -15.0341   YY=            -16.4096   ZZ=            -22.0660
   XY=             -0.0000   XZ=              0.0000   YZ=              0.0000

 Normal termination of Gaussian 09 at Sat Feb 18 12:42:01 2017.
