 Gaussian 09, Revision E.01,
 Gaussian 09:  ES64L-G09RevE.01 30-Nov-2015

 ----------------------------------------------------------------------
 #rhf/gen scf(symm,tight,novaracc,noincfock,fulldiag) stable(crhf) gues
 s=read geom=nocrowd test
 ----------------------------------------------------------------------

 hf stability analysis of h10 triangular lattice, y= 0.5889881594497650
 1
 ----------------------------------------------------------------------
 Symbolic Z-matrix:
 Charge =  0 Multiplicity = 1

                         Standard orientation:
 ---------------------------------------------------------------------
 Center     Atomic      Atomic             Coordinates (Angstroms)
 Number     Number       Type             X           Y           Z
 ---------------------------------------------------------------------
      1          1           0        0.000000    1.177976    0.980241
      2          1           0        0.000000    0.588988    1.960482
      3          1           0        0.000000    0.588988    0.000000
      4          1           0        0.000000    0.000000    0.980241
      5          1           0       -0.000000   -0.588988    0.000000
      6          1           0       -0.000000   -1.177976   -0.980241
      7          1           0        0.000000    0.000000   -0.980241
      8          1           0       -0.000000   -0.588988   -1.960482
      9          1           0        0.000000    1.177976   -0.980241
     10          1           0        0.000000    0.588988   -1.960482
     11          1           0       -0.000000   -0.588988    1.960482
     12          1           0       -0.000000   -1.177976    0.980241
 ---------------------------------------------------------------------

 SCF Done:  E(RHF) =  -5.62363336816     A.U. after   12 cycles
 E2 =    -0.1267074655D+00 EUMP2 =    -0.57503408337097D+01

 The electronic state is 1-AG.
 Alpha  occ. eigenvalues --   -0.93488  -0.77911  -0.61009  -0.48918  -0.45510
 Alpha  occ. eigenvalues --   -0.11111
 Alpha virt. eigenvalues --    0.04577   0.11257   0.26213   0.38478   0.51240
 Alpha virt. eigenvalues --    0.63496

 Mulliken charges:
               1
     1  H    0.189058
     2  H   -0.127303
     3  H   -0.327688
     4  H    0.204178
     5  H   -0.327688
     6  H    0.189058
     7  H    0.204178
     8  H   -0.127303
     9  H    0.189058
    10  H   -0.127303
    11  H   -0.127303
    12  H    0.189058
 Sum of Mulliken charges =  -0.00000

 Dipole moment (field-independent basis, Debye):
    X=              0.0000    Y=              0.0000    Z=             -0.0000  Tot=              0.0000
 Quadrupole moment (field-independent basis, Debye-Ang):
   XX=            -15.0167   YY=            -15.8618   ZZ=            -22.7446
   XY=             -0.0000   XZ=              0.0000   YZ=              0.0000

 Normal termination of Gaussian 09 at Sat Feb 18 12:42:03 2017.
