 Gaussian 09, Revision E.01,
 Gaussian 09:  ES64L-G09RevE.01 30-Nov-2015

 ----------------------------------------------------------------------
 #rhf/gen scf(symm,tight,novaracc,noincfock,fulldiag) stable(crhf) gues
 s=read geom=nocrowd test
 ----------------------------------------------------------------------

 hf stability analysis of h10 triangular lattice, y= 0.8007574317254395
 6
 ----------------------------------------------------------------------
 Symbolic Z-matrix:
 Charge =  0 Multiplicity = 1

                         Standard orientation:
 ---------------------------------------------------------------------
 Center     Atomic      Atomic             Coordinates (Angstroms)
 Number     Number       Type             X           Y           Z
 ---------------------------------------------------------------------
      1          1           0       -0.000000    0.721005    1.601515
      2          1           0       -0.000000    1.442010    0.800757
      3          1           0       -0.000000    0.000000    0.800757
      4          1           0       -0.000000    0.721005   -0.000000
      5          1           0        0.000000    0.000000   -0.800757
      6          1           0       -0.000000   -0.721005   -1.601515
      7          1           0       -0.000000   -0.721005    0.000000
      8          1           0       -0.000000   -1.442010   -0.800757
      9          1           0       -0.000000   -0.721005    1.601515
     10          1           0       -0.000000   -1.442010    0.800757
     11          1           0        0.000000    1.442010   -0.800757
     12          1           0        0.000000    0.721005   -1.601515
 ---------------------------------------------------------------------

 SCF Done:  E(RHF) =  -5.20048544736     A.U. after   31 cycles
 E2 =    -0.1580456906D+00 EUMP2 =    -0.53585311379680D+01

 The electronic state is 1-AG.
 Alpha  occ. eigenvalues --   -0.93460  -0.70212  -0.69273  -0.45430  -0.39739
 Alpha  occ. eigenvalues --    0.03133
 Alpha virt. eigenvalues --   -0.06569   0.13515   0.14557   0.43980   0.44871
 Alpha virt. eigenvalues --    0.83776

 Mulliken charges:
               1
     1  H   -0.138034
     2  H    0.134365
     3  H   -0.013477
     4  H    0.020814
     5  H   -0.013477
     6  H   -0.138034
     7  H    0.020814
     8  H    0.134365
     9  H   -0.138034
    10  H    0.134365
    11  H    0.134365
    12  H   -0.138034
 Sum of Mulliken charges =   0.00000

 Dipole moment (field-independent basis, Debye):
    X=             -0.0000    Y=             -0.0000    Z=              0.0000  Tot=              0.0000
 Quadrupole moment (field-independent basis, Debye-Ang):
   XX=            -14.8122   YY=            -10.2207   ZZ=            -27.9051
   XY=              0.0000   XZ=              0.0000   YZ=             -0.0000

 Normal termination of Gaussian 09 at Sat Feb 18 12:42:41 2017.
