 Gaussian 09, Revision E.01,
 Gaussian 09:  ES64L-G09RevE.01 30-Nov-2015

 ----------------------------------------------------------------------
 #rhf/gen scf(symm,tight,novaracc,noincfock,fulldiag) stable(crhf) gues
 s=read geom=nocrowd test
 ----------------------------------------------------------------------

 hf stability analysis of h10 triangular lattice, y= 0.9612250668035587
 9
 ----------------------------------------------------------------------
 Symbolic Z-matrix:
 Charge =  0 Multiplicity = 1

                         Standard orientation:
 ---------------------------------------------------------------------
 Center     Atomic      Atomic             Coordinates (Angstroms)
 Number     Number       Type             X           Y           Z
 ---------------------------------------------------------------------
      1          1           0        0.000000    0.600640    1.922450
      2          1           0        0.000000    1.201280    0.961225
      3          1           0        0.000000    0.000000    0.961225
      4          1           0       -0.000000    0.600640   -0.000000
      5          1           0        0.000000    0.000000   -0.961225
      6          1           0       -0.000000   -0.600640   -1.922450
      7          1           0       -0.000000   -0.600640   -0.000000
      8          1           0       -0.000000   -1.201280   -0.961225
      9          1           0       -0.000000   -0.600640    1.922450
     10          1           0       -0.000000   -1.201280    0.961225
     11          1           0        0.000000    1.201280   -0.961225
     12          1           0        0.000000    0.600640   -1.922450
 ---------------------------------------------------------------------

 SCF Done:  E(RHF) =  -5.78809118132     A.U. after    9 cycles
 E2 =    -0.1301064466D+00 EUMP2 =    -0.59181976279488D+01

 The electronic state is 1-AG.
 Alpha  occ. eigenvalues --   -0.96818  -0.78829  -0.62551  -0.52022  -0.43452
 Alpha  occ. eigenvalues --   -0.20697
 Alpha virt. eigenvalues --    0.07816   0.13170   0.24210   0.41173   0.49099
 Alpha virt. eigenvalues --    0.61484

 Mulliken charges:
               1
     1  H   -0.081478
     2  H    0.039527
     3  H    0.046780
     4  H    0.037122
     5  H    0.046780
     6  H   -0.081478
     7  H    0.037122
     8  H    0.039527
     9  H   -0.081478
    10  H    0.039527
    11  H    0.039527
    12  H   -0.081478
 Sum of Mulliken charges =   0.00000

 Dipole moment (field-independent basis, Debye):
    X=             -0.0000    Y=             -0.0000    Z=             -0.0000  Tot=              0.0000
 Quadrupole moment (field-independent basis, Debye-Ang):
   XX=            -15.1653   YY=            -15.1379   ZZ=            -26.4692
   XY=              0.0000   XZ=              0.0000   YZ=             -0.0000

 Normal termination of Gaussian 09 at Sat Feb 18 12:43:05 2017.
