 Gaussian 09, Revision E.01,
 Gaussian 09:  ES64L-G09RevE.01 30-Nov-2015

 ----------------------------------------------------------------------
 #rhf/gen scf(symm,tight,novaracc,noincfock,fulldiag) stable(crhf) gues
 s=read geom=nocrowd test
 ----------------------------------------------------------------------

 hf stability analysis of h10 triangular lattice, y= 0.8753112166669652
 1
 ----------------------------------------------------------------------
 Symbolic Z-matrix:
 Charge =  0 Multiplicity = 1

                         Standard orientation:
 ---------------------------------------------------------------------
 Center     Atomic      Atomic             Coordinates (Angstroms)
 Number     Number       Type             X           Y           Z
 ---------------------------------------------------------------------
      1          1           0        0.000000    0.659594    1.750622
      2          1           0        0.000000    1.319189    0.875311
      3          1           0        0.000000   -0.000000    0.875311
      4          1           0        0.000000    0.659594    0.000000
      5          1           0        0.000000    0.000000   -0.875311
      6          1           0       -0.000000   -0.659594   -1.750622
      7          1           0       -0.000000   -0.659594   -0.000000
      8          1           0       -0.000000   -1.319189   -0.875311
      9          1           0       -0.000000   -0.659594    1.750622
     10          1           0       -0.000000   -1.319189    0.875311
     11          1           0        0.000000    1.319189   -0.875311
     12          1           0        0.000000    0.659594   -1.750622
 ---------------------------------------------------------------------

 SCF Done:  E(RHF) =  -5.54329183187     A.U. after   12 cycles
 E2 =    -0.1584247530D+00 EUMP2 =    -0.57017165849148D+01

 The electronic state is 1-AG.
 Alpha  occ. eigenvalues --   -0.98235  -0.77340  -0.66119  -0.47767  -0.44213
 Alpha  occ. eigenvalues --   -0.10560
 Alpha virt. eigenvalues --   -0.00947   0.11511   0.18601   0.41106   0.53918
 Alpha virt. eigenvalues --    0.66663

 Mulliken charges:
               1
     1  H   -0.083322
     2  H    0.031585
     3  H    0.137735
     4  H   -0.034260
     5  H    0.137735
     6  H   -0.083322
     7  H   -0.034260
     8  H    0.031585
     9  H   -0.083322
    10  H    0.031585
    11  H    0.031585
    12  H   -0.083322
 Sum of Mulliken charges =   0.00000

 Dipole moment (field-independent basis, Debye):
    X=              0.0000    Y=              0.0000    Z=              0.0000  Tot=              0.0000
 Quadrupole moment (field-independent basis, Debye-Ang):
   XX=            -14.9569   YY=            -15.3309   ZZ=            -25.7589
   XY=             -0.0000   XZ=              0.0000   YZ=              0.0000

 Normal termination of Gaussian 09 at Sat Feb 18 12:42:53 2017.
