 Gaussian 09, Revision E.01,
 Gaussian 09:  ES64L-G09RevE.01 30-Nov-2015

 ----------------------------------------------------------------------
 #rhf/gen scf(symm,tight,novaracc,noincfock,fulldiag) stable(crhf) gues
 s=read geom=nocrowd test
 ----------------------------------------------------------------------

 hf stability analysis of h10 triangular lattice, y= 0.4950461160480687
 5
 ----------------------------------------------------------------------
 Symbolic Z-matrix:
 Charge =  0 Multiplicity = 1

                         Standard orientation:
 ---------------------------------------------------------------------
 Center     Atomic      Atomic             Coordinates (Angstroms)
 Number     Number       Type             X           Y           Z
 ---------------------------------------------------------------------
      1          1           0       -0.000000    0.990092    1.166256
      2          1           0       -0.000000    0.495046    2.332511
      3          1           0        0.000000    0.495046    0.000000
      4          1           0       -0.000000   -0.000000    1.166256
      5          1           0       -0.000000   -0.495046   -0.000000
      6          1           0       -0.000000   -0.990092   -1.166256
      7          1           0        0.000000    0.000000   -1.166256
      8          1           0       -0.000000   -0.495046   -2.332511
      9          1           0        0.000000    0.990092   -1.166256
     10          1           0        0.000000    0.495046   -2.332511
     11          1           0       -0.000000   -0.495046    2.332511
     12          1           0       -0.000000   -0.990092    1.166256
 ---------------------------------------------------------------------

 SCF Done:  E(RHF) =  -5.36503026663     A.U. after   12 cycles
 E2 =    -0.1678087149D+00 EUMP2 =    -0.55328389815357D+01

 The electronic state is 1-AG.
 Alpha  occ. eigenvalues --   -0.91015  -0.80756  -0.53841  -0.52411  -0.41969
 Alpha  occ. eigenvalues --   -0.04499
 Alpha virt. eigenvalues --   -0.12993   0.16161   0.33265   0.34426   0.41070
 Alpha virt. eigenvalues --    0.62183

 Mulliken charges:
               1
     1  H    0.074103
     2  H   -0.028690
     3  H   -0.226544
     4  H    0.135718
     5  H   -0.226544
     6  H    0.074103
     7  H    0.135718
     8  H   -0.028690
     9  H    0.074103
    10  H   -0.028690
    11  H   -0.028690
    12  H    0.074103
 Sum of Mulliken charges =  -0.00000

 Dipole moment (field-independent basis, Debye):
    X=              0.0000    Y=             -0.0000    Z=              0.0000  Tot=              0.0000
 Quadrupole moment (field-independent basis, Debye-Ang):
   XX=            -15.1410   YY=            -20.0031   ZZ=            -15.8116
   XY=             -0.0000   XZ=             -0.0000   YZ=             -0.0000

 Normal termination of Gaussian 09 at Sat Feb 18 12:41:45 2017.
