 Gaussian 09, Revision E.01,
 Gaussian 09:  ES64L-G09RevE.01 30-Nov-2015

 ----------------------------------------------------------------------
 #rhf/gen scf(symm,tight,novaracc,noincfock,fulldiag) stable(crhf) gues
 s=read geom=nocrowd test
 ----------------------------------------------------------------------

 ----------------------------------------------------------------------
 hf stability analysis of h10 triangular lattice, y= 1.9092530122354845
 ----------------------------------------------------------------------
 Symbolic Z-matrix:
 Charge =  0 Multiplicity = 1

                         Standard orientation:
 ---------------------------------------------------------------------
 Center     Atomic      Atomic             Coordinates (Angstroms)
 Number     Number       Type             X           Y           Z
 ---------------------------------------------------------------------
      1          1           0        0.000000    0.302396    3.818506
      2          1           0       -0.000000    0.604792    1.909253
      3          1           0        0.000000    0.000000    1.909253
      4          1           0       -0.000000    0.302396   -0.000000
      5          1           0        0.000000   -0.000000   -1.909253
      6          1           0       -0.000000   -0.302396   -3.818506
      7          1           0       -0.000000   -0.302396    0.000000
      8          1           0       -0.000000   -0.604792   -1.909253
      9          1           0       -0.000000   -0.302396    3.818506
     10          1           0       -0.000000   -0.604792    1.909253
     11          1           0        0.000000    0.604792   -1.909253
     12          1           0        0.000000    0.302396   -3.818506
 ---------------------------------------------------------------------

 SCF Done:  E(RHF) =  -4.76438680426     A.U. after   10 cycles
 E2 =    -0.1129286089D+00 EUMP2 =    -0.48773154131309D+01

 The electronic state is 1-AG.
 Alpha  occ. eigenvalues --   -0.84698  -0.79168  -0.70545  -0.64470  -0.27128
 Alpha  occ. eigenvalues --   -0.24400
 Alpha virt. eigenvalues --   -0.47528   0.38253   0.48714   0.50203   1.15330
 Alpha virt. eigenvalues --    1.16023

 Mulliken charges:
               1
     1  H    0.089954
     2  H   -0.220948
     3  H   -0.041417
     4  H    0.303405
     5  H   -0.041417
     6  H    0.089954
     7  H    0.303405
     8  H   -0.220948
     9  H    0.089954
    10  H   -0.220948
    11  H   -0.220948
    12  H    0.089954
 Sum of Mulliken charges =  -0.00000

 Dipole moment (field-independent basis, Debye):
    X=             -0.0000    Y=              0.0000    Z=              0.0000  Tot=              0.0000
 Quadrupole moment (field-independent basis, Debye-Ang):
   XX=            -15.5077   YY=            -21.4290   ZZ=             -6.2664
   XY=             -0.0000   XZ=             -0.0000   YZ=             -0.0000

 Normal termination of Gaussian 09 at Sat Feb 18 12:43:55 2017.
