 Gaussian 09, Revision E.01,
 Gaussian 09:  ES64L-G09RevE.01 30-Nov-2015

 ----------------------------------------------------------------------
 #rhf/gen scf(symm,tight,novaracc,noincfock,fulldiag) stable(crhf) gues
 s=read geom=nocrowd test
 ----------------------------------------------------------------------

 hf stability analysis of h10 triangular lattice, y= 0.3023959355609886
 5
 ----------------------------------------------------------------------
 Symbolic Z-matrix:
 Charge =  0 Multiplicity = 1

                         Standard orientation:
 ---------------------------------------------------------------------
 Center     Atomic      Atomic             Coordinates (Angstroms)
 Number     Number       Type             X           Y           Z
 ---------------------------------------------------------------------
      1          1           0       -0.000000    0.604792    1.909253
      2          1           0        0.000000    0.302396    3.818505
      3          1           0       -0.000000    0.302396   -0.000000
      4          1           0        0.000000    0.000000    1.909253
      5          1           0       -0.000000   -0.302396    0.000000
      6          1           0       -0.000000   -0.604792   -1.909253
      7          1           0        0.000000   -0.000000   -1.909253
      8          1           0       -0.000000   -0.302396   -3.818505
      9          1           0        0.000000    0.604792   -1.909253
     10          1           0        0.000000    0.302396   -3.818505
     11          1           0       -0.000000   -0.302396    3.818505
     12          1           0       -0.000000   -0.604792    1.909253
 ---------------------------------------------------------------------

 SCF Done:  E(RHF) =  -3.07622023946     A.U. after   17 cycles
 E2 =    -0.6028991660D+00 EUMP2 =    -0.36791194054476D+01

 The electronic state is 1-AG.
 Alpha  occ. eigenvalues --   -0.78111  -0.75995  -0.61087  -0.23530  -0.21636
 Alpha  occ. eigenvalues --    0.17376
 Alpha virt. eigenvalues --   -0.40407  -0.37285   0.25742   0.56548   1.18981
 Alpha virt. eigenvalues --    1.19654

 Mulliken charges:
               1
     1  H   -0.217787
     2  H    0.212262
     3  H    0.075384
     4  H   -0.064333
     5  H    0.075384
     6  H   -0.217787
     7  H   -0.064333
     8  H    0.212262
     9  H   -0.217787
    10  H    0.212262
    11  H    0.212262
    12  H   -0.217787
 Sum of Mulliken charges =   0.00000

 Dipole moment (field-independent basis, Debye):
    X=              0.0000    Y=              0.0000    Z=             -0.0000  Tot=              0.0000
 Quadrupole moment (field-independent basis, Debye-Ang):
   XX=            -14.6117   YY=            -23.9797   ZZ=             29.0942
   XY=             -0.0000   XZ=             -0.0000   YZ=             -0.0000

 Normal termination of Gaussian 09 at Sat Feb 18 12:41:15 2017.
