 Gaussian 09, Revision E.01,
 Gaussian 09:  ES64L-G09RevE.01 30-Nov-2015

 ----------------------------------------------------------------------
 #rhf/gen scf(symm,tight,novaracc,noincfock,fulldiag) stable(crhf) gues
 s=read geom=nocrowd test
 ----------------------------------------------------------------------

 hf stability analysis of h10 triangular lattice, y= 0.6123199016056329
 9
 ----------------------------------------------------------------------
 Symbolic Z-matrix:
 Charge =  0 Multiplicity = 1

                         Standard orientation:
 ---------------------------------------------------------------------
 Center     Atomic      Atomic             Coordinates (Angstroms)
 Number     Number       Type             X           Y           Z
 ---------------------------------------------------------------------
      1          1           0       -0.000000    1.224640    0.942890
      2          1           0        0.000000    0.612320    1.885780
      3          1           0       -0.000000    0.612320    0.000000
      4          1           0        0.000000    0.000000    0.942890
      5          1           0       -0.000000   -0.612320    0.000000
      6          1           0       -0.000000   -1.224640   -0.942890
      7          1           0        0.000000   -0.000000   -0.942890
      8          1           0       -0.000000   -0.612320   -1.885780
      9          1           0        0.000000    1.224640   -0.942890
     10          1           0        0.000000    0.612320   -1.885780
     11          1           0       -0.000000   -0.612320    1.885780
     12          1           0       -0.000000   -1.224640    0.942890
 ---------------------------------------------------------------------

 SCF Done:  E(RHF) =  -5.63738962941     A.U. after   11 cycles
 E2 =    -0.1190196326D+00 EUMP2 =    -0.57564092619675D+01

 The electronic state is 1-AG.
 Alpha  occ. eigenvalues --   -0.93825  -0.76922  -0.62821  -0.47354  -0.46051
 Alpha  occ. eigenvalues --   -0.11992
 Alpha virt. eigenvalues --    0.07450   0.08941   0.23754   0.39662   0.58934
 Alpha virt. eigenvalues --    0.61582

 Mulliken charges:
               1
     1  H    0.211723
     2  H   -0.150721
     3  H   -0.345776
     4  H    0.223771
     5  H   -0.345776
     6  H    0.211723
     7  H    0.223771
     8  H   -0.150721
     9  H    0.211723
    10  H   -0.150721
    11  H   -0.150721
    12  H    0.211723
 Sum of Mulliken charges =  -0.00000

 Dipole moment (field-independent basis, Debye):
    X=              0.0000    Y=              0.0000    Z=             -0.0000  Tot=              0.0000
 Quadrupole moment (field-independent basis, Debye-Ang):
   XX=            -14.9817   YY=            -14.7475   ZZ=            -23.9784
   XY=             -0.0000   XZ=              0.0000   YZ=              0.0000

 Normal termination of Gaussian 09 at Sat Feb 18 12:42:07 2017.
