 Gaussian 09, Revision E.01,
 Gaussian 09:  ES64L-G09RevE.01 30-Nov-2015

 ----------------------------------------------------------------------
 #rhf/gen scf(symm,tight,novaracc,noincfock,fulldiag) stable(crhf) gues
 s=read geom=nocrowd test
 ----------------------------------------------------------------------

 ----------------------------------------------------------------------
 hf stability analysis of h10 triangular lattice, y= 2.5688804782633659
 ----------------------------------------------------------------------
 Symbolic Z-matrix:
 Charge =  0 Multiplicity = 1

                         Standard orientation:
 ---------------------------------------------------------------------
 Center     Atomic      Atomic             Coordinates (Angstroms)
 Number     Number       Type             X           Y           Z
 ---------------------------------------------------------------------
      1          1           0        0.000000    0.224748    5.137761
      2          1           0        0.000000    0.449496    2.568880
      3          1           0        0.000000    0.000000    2.568880
      4          1           0        0.000000    0.224748    0.000000
      5          1           0        0.000000    0.000000   -2.568880
      6          1           0       -0.000000   -0.224748   -5.137761
      7          1           0       -0.000000   -0.224748   -0.000000
      8          1           0       -0.000000   -0.449496   -2.568880
      9          1           0       -0.000000   -0.224748    5.137761
     10          1           0       -0.000000   -0.449496    2.568880
     11          1           0        0.000000    0.449496   -2.568880
     12          1           0        0.000000    0.224748   -5.137761
 ---------------------------------------------------------------------

 SCF Done:  E(RHF) =  -2.84751072857     A.U. after   11 cycles
 E2 =    -0.1716457946D+00 EUMP2 =    -0.30191565231475D+01

 The electronic state is 1-AG.
 Alpha  occ. eigenvalues --   -0.82973  -0.79202  -0.76340  -0.73358  -0.14536
 Alpha  occ. eigenvalues --   -0.14198
 Alpha virt. eigenvalues --   -0.63330   0.51059   0.60747   0.60793   1.76887
 Alpha virt. eigenvalues --    1.77011

 Mulliken charges:
               1
     1  H    0.102864
     2  H   -0.131523
     3  H   -0.208806
     4  H    0.266125
     5  H   -0.208806
     6  H    0.102864
     7  H    0.266125
     8  H   -0.131523
     9  H    0.102864
    10  H   -0.131523
    11  H   -0.131523
    12  H    0.102864
 Sum of Mulliken charges =  -0.00000

 Dipole moment (field-independent basis, Debye):
    X=             -0.0000    Y=             -0.0000    Z=              0.0000  Tot=              0.0000
 Quadrupole moment (field-independent basis, Debye-Ang):
   XX=            -15.0716   YY=            -21.0518   ZZ=              8.9857
   XY=             -0.0000   XZ=             -0.0000   YZ=              0.0000

 Normal termination of Gaussian 09 at Sat Feb 18 12:44:04 2017.
