 Gaussian 09, Revision E.01,
 Gaussian 09:  ES64L-G09RevE.01 30-Nov-2015

 ----------------------------------------------------------------------
 #rhf/gen scf(symm,tight,novaracc,noincfock,fulldiag) stable(crhf) gues
 s=read geom=nocrowd test
 ----------------------------------------------------------------------

 hf stability analysis of h10 triangular lattice, y= 0.3650915174764740
 0
 ----------------------------------------------------------------------
 Symbolic Z-matrix:
 Charge =  0 Multiplicity = 1

                         Standard orientation:
 ---------------------------------------------------------------------
 Center     Atomic      Atomic             Coordinates (Angstroms)
 Number     Number       Type             X           Y           Z
 ---------------------------------------------------------------------
      1          1           0        0.000000    0.730183    1.581385
      2          1           0        0.000000    0.365092    3.162770
      3          1           0        0.000000    0.365092   -0.000000
      4          1           0        0.000000    0.000000    1.581385
      5          1           0       -0.000000   -0.365092    0.000000
      6          1           0       -0.000000   -0.730183   -1.581385
      7          1           0        0.000000   -0.000000   -1.581385
      8          1           0       -0.000000   -0.365092   -3.162770
      9          1           0        0.000000    0.730183   -1.581385
     10          1           0        0.000000    0.365092   -3.162770
     11          1           0       -0.000000   -0.365092    3.162770
     12          1           0       -0.000000   -0.730183    1.581385
 ---------------------------------------------------------------------

 SCF Done:  E(RHF) =  -4.17675173376     A.U. after   15 cycles
 E2 =    -0.4086379383D+00 EUMP2 =    -0.45853896720921D+01

 The electronic state is 1-AG.
 Alpha  occ. eigenvalues --   -0.84499  -0.80035  -0.57418  -0.36441  -0.31866
 Alpha  occ. eigenvalues --    0.11666
 Alpha virt. eigenvalues --   -0.34502  -0.21878   0.28979   0.49898   0.79733
 Alpha virt. eigenvalues --    0.82086

 Mulliken charges:
               1
     1  H   -0.130388
     2  H    0.110406
     3  H    0.010921
     4  H    0.029044
     5  H    0.010921
     6  H   -0.130388
     7  H    0.029044
     8  H    0.110406
     9  H   -0.130388
    10  H    0.110406
    11  H    0.110406
    12  H   -0.130388
 Sum of Mulliken charges =  -0.00000

 Dipole moment (field-independent basis, Debye):
    X=              0.0000    Y=             -0.0000    Z=             -0.0000  Tot=              0.0000
 Quadrupole moment (field-independent basis, Debye-Ang):
   XX=            -15.0422   YY=            -23.7004   ZZ=              2.2317
   XY=             -0.0000   XZ=             -0.0000   YZ=             -0.0000

 Normal termination of Gaussian 09 at Sat Feb 18 12:41:24 2017.
