 Gaussian 09, Revision E.01,
 Gaussian 09:  ES64L-G09RevE.01 30-Nov-2015

 ----------------------------------------------------------------------
 #rhf/gen scf(symm,tight,novaracc,noincfock,fulldiag) stable(crhf) gues
 s=read geom=nocrowd test
 ----------------------------------------------------------------------

 ----------------------------------------------------------------------
 hf stability analysis of h10 triangular lattice, y= 1.5217180473945009
 ----------------------------------------------------------------------
 Symbolic Z-matrix:
 Charge =  0 Multiplicity = 1

                         Standard orientation:
 ---------------------------------------------------------------------
 Center     Atomic      Atomic             Coordinates (Angstroms)
 Number     Number       Type             X           Y           Z
 ---------------------------------------------------------------------
      1          1           0        0.000000    0.379407    3.043436
      2          1           0        0.000000    0.758814    1.521718
      3          1           0        0.000000    0.000000    1.521718
      4          1           0        0.000000    0.379407   -0.000000
      5          1           0        0.000000   -0.000000   -1.521718
      6          1           0       -0.000000   -0.379407   -3.043436
      7          1           0       -0.000000   -0.379407    0.000000
      8          1           0       -0.000000   -0.758814   -1.521718
      9          1           0       -0.000000   -0.379407    3.043436
     10          1           0       -0.000000   -0.758814    1.521718
     11          1           0        0.000000    0.758814   -1.521718
     12          1           0        0.000000    0.379407   -3.043436
 ---------------------------------------------------------------------

 SCF Done:  E(RHF) =  -5.65887485175     A.U. after    9 cycles
 E2 =    -0.1107798142D+00 EUMP2 =    -0.57696546659701D+01

 The electronic state is 1-AG.
 Alpha  occ. eigenvalues --   -0.89150  -0.81246  -0.66194  -0.54955  -0.39022
 Alpha  occ. eigenvalues --   -0.32493
 Alpha virt. eigenvalues --   -0.27393   0.29983   0.42168   0.50825   0.74008
 Alpha virt. eigenvalues --    0.76910

 Mulliken charges:
               1
     1  H    0.056115
     2  H   -0.182785
     3  H    0.001739
     4  H    0.251600
     5  H    0.001739
     6  H    0.056115
     7  H    0.251600
     8  H   -0.182785
     9  H    0.056115
    10  H   -0.182785
    11  H   -0.182785
    12  H    0.056115
 Sum of Mulliken charges =  -0.00000

 Dipole moment (field-independent basis, Debye):
    X=              0.0000    Y=             -0.0000    Z=              0.0000  Tot=              0.0000
 Quadrupole moment (field-independent basis, Debye-Ang):
   XX=            -15.6297   YY=            -20.8943   ZZ=            -14.7653
   XY=             -0.0000   XZ=             -0.0000   YZ=              0.0000

 Normal termination of Gaussian 09 at Sat Feb 18 12:43:44 2017.
