 Gaussian 09, Revision E.01,
 Gaussian 09:  ES64L-G09RevE.01 30-Nov-2015

 ----------------------------------------------------------------------
 #rhf/gen scf(symm,tight,novaracc,noincfock,fulldiag) stable(crhf) gues
 s=read geom=nocrowd test
 ----------------------------------------------------------------------

 hf stability analysis of h10 triangular lattice, y= 0.7868496627299574
 9
 ----------------------------------------------------------------------
 Symbolic Z-matrix:
 Charge =  0 Multiplicity = 1

                         Standard orientation:
 ---------------------------------------------------------------------
 Center     Atomic      Atomic             Coordinates (Angstroms)
 Number     Number       Type             X           Y           Z
 ---------------------------------------------------------------------
      1          1           0        0.000000    0.733749    1.573699
      2          1           0       -0.000000    1.467498    0.786850
      3          1           0        0.000000    0.000000    0.786850
      4          1           0       -0.000000    0.733749    0.000000
      5          1           0        0.000000   -0.000000   -0.786850
      6          1           0       -0.000000   -0.733749   -1.573699
      7          1           0       -0.000000   -0.733749   -0.000000
      8          1           0       -0.000000   -1.467498   -0.786850
      9          1           0       -0.000000   -0.733749    1.573699
     10          1           0       -0.000000   -1.467498    0.786850
     11          1           0        0.000000    1.467498   -0.786850
     12          1           0        0.000000    0.733749   -1.573699
 ---------------------------------------------------------------------

 SCF Done:  E(RHF) =  -5.46436801352     A.U. after   20 cycles
 E2 =    -0.5395643148D+00 EUMP2 =    -0.60039323283646D+01

 The electronic state is 1-AG.
 Alpha  occ. eigenvalues --   -0.94232  -0.72413  -0.66803  -0.46949  -0.38028
 Alpha  occ. eigenvalues --   -0.10274
 Alpha virt. eigenvalues --   -0.09112   0.12290   0.31289   0.43125   0.43581
 Alpha virt. eigenvalues --    0.86914

 Mulliken charges:
               1
     1  H    0.045517
     2  H   -0.022671
     3  H   -0.038605
     4  H   -0.007088
     5  H   -0.038605
     6  H    0.045517
     7  H   -0.007088
     8  H   -0.022671
     9  H    0.045517
    10  H   -0.022671
    11  H   -0.022671
    12  H    0.045517
 Sum of Mulliken charges =  -0.00000

 Dipole moment (field-independent basis, Debye):
    X=              0.0000    Y=              0.0000    Z=              0.0000  Tot=              0.0000
 Quadrupole moment (field-independent basis, Debye-Ang):
   XX=            -14.7873   YY=            -18.0101   ZZ=            -18.5452
   XY=             -0.0000   XZ=              0.0000   YZ=              0.0000

 Normal termination of Gaussian 09 at Sat Feb 18 12:42:38 2017.
