 Gaussian 09, Revision E.01,
 Gaussian 09:  ES64L-G09RevE.01 30-Nov-2015

 ----------------------------------------------------------------------
 #rhf/gen scf(symm,tight,novaracc,noincfock,fulldiag) stable(crhf) gues
 s=read geom=nocrowd test
 ----------------------------------------------------------------------

 hf stability analysis of h10 triangular lattice, y= 0.5188669005588153
 5
 ----------------------------------------------------------------------
 Symbolic Z-matrix:
 Charge =  0 Multiplicity = 1

                         Standard orientation:
 ---------------------------------------------------------------------
 Center     Atomic      Atomic             Coordinates (Angstroms)
 Number     Number       Type             X           Y           Z
 ---------------------------------------------------------------------
      1          1           0       -0.000000    1.037734    1.112714
      2          1           0       -0.000000    0.518867    2.225427
      3          1           0       -0.000000    0.518867   -0.000000
      4          1           0       -0.000000    0.000000    1.112714
      5          1           0       -0.000000   -0.518867    0.000000
      6          1           0       -0.000000   -1.037734   -1.112714
      7          1           0        0.000000   -0.000000   -1.112714
      8          1           0       -0.000000   -0.518867   -2.225427
      9          1           0        0.000000    1.037734   -1.112714
     10          1           0        0.000000    0.518867   -2.225427
     11          1           0       -0.000000   -0.518867    2.225427
     12          1           0       -0.000000   -1.037734    1.112714
 ---------------------------------------------------------------------

 SCF Done:  E(RHF) =  -5.46704768816     A.U. after   11 cycles
 E2 =    -0.1278945525D+00 EUMP2 =    -0.55949422407049D+01

 The electronic state is 1-AG.
 Alpha  occ. eigenvalues --   -0.91814  -0.80240  -0.54778  -0.52825  -0.43093
 Alpha  occ. eigenvalues --   -0.06651
 Alpha virt. eigenvalues --   -0.08596   0.20660   0.32037   0.34558   0.36474
 Alpha virt. eigenvalues --    0.63759

 Mulliken charges:
               1
     1  H    0.106812
     2  H   -0.054161
     3  H   -0.257129
     4  H    0.151827
     5  H   -0.257129
     6  H    0.106812
     7  H    0.151827
     8  H   -0.054161
     9  H    0.106812
    10  H   -0.054161
    11  H   -0.054161
    12  H    0.106812
 Sum of Mulliken charges =  -0.00000

 Dipole moment (field-independent basis, Debye):
    X=              0.0000    Y=             -0.0000    Z=             -0.0000  Tot=              0.0000
 Quadrupole moment (field-independent basis, Debye-Ang):
   XX=            -15.1150   YY=            -19.0275   ZZ=            -17.9155
   XY=             -0.0000   XZ=              0.0000   YZ=              0.0000

 Normal termination of Gaussian 09 at Sat Feb 18 12:41:50 2017.
