 Gaussian 09, Revision E.01,
 Gaussian 09:  ES64L-G09RevE.01 30-Nov-2015

 ----------------------------------------------------------------------
 #rhf/gen scf(symm,tight,novaracc,noincfock,fulldiag) stable(crhf) gues
 s=read geom=nocrowd test
 ----------------------------------------------------------------------

 hf stability analysis of h10 triangular lattice, y= 0.6476646814092581
 5
 ----------------------------------------------------------------------
 Symbolic Z-matrix:
 Charge =  0 Multiplicity = 1

                         Standard orientation:
 ---------------------------------------------------------------------
 Center     Atomic      Atomic             Coordinates (Angstroms)
 Number     Number       Type             X           Y           Z
 ---------------------------------------------------------------------
      1          1           0        0.000000    1.295329    0.891434
      2          1           0        0.000000    0.647665    1.782868
      3          1           0        0.000000    0.647665    0.000000
      4          1           0        0.000000    0.000000    0.891434
      5          1           0       -0.000000   -0.647665   -0.000000
      6          1           0       -0.000000   -1.295329   -0.891434
      7          1           0        0.000000   -0.000000   -0.891434
      8          1           0       -0.000000   -0.647665   -1.782868
      9          1           0        0.000000    1.295329   -0.891434
     10          1           0        0.000000    0.647665   -1.782868
     11          1           0       -0.000000   -0.647665    1.782868
     12          1           0       -0.000000   -1.295329    0.891434
 ---------------------------------------------------------------------

 SCF Done:  E(RHF) =  -5.63001396521     A.U. after   13 cycles
 E2 =    -0.1105502768D+00 EUMP2 =    -0.57405642419609D+01

 The electronic state is 1-AG.
 Alpha  occ. eigenvalues --   -0.94138  -0.75269  -0.65287  -0.46656  -0.44788
 Alpha  occ. eigenvalues --   -0.12801
 Alpha virt. eigenvalues --    0.02180   0.14924   0.21358   0.41203   0.57179
 Alpha virt. eigenvalues --    0.69853

 Mulliken charges:
               1
     1  H    0.241463
     2  H   -0.184900
     3  H   -0.368656
     4  H    0.255530
     5  H   -0.368656
     6  H    0.241463
     7  H    0.255530
     8  H   -0.184900
     9  H    0.241463
    10  H   -0.184900
    11  H   -0.184900
    12  H    0.241463
 Sum of Mulliken charges =  -0.00000

 Dipole moment (field-independent basis, Debye):
    X=             -0.0000    Y=             -0.0000    Z=              0.0000  Tot=              0.0000
 Quadrupole moment (field-independent basis, Debye-Ang):
   XX=            -14.9292   YY=            -13.0428   ZZ=            -25.5545
   XY=             -0.0000   XZ=              0.0000   YZ=             -0.0000

 Normal termination of Gaussian 09 at Sat Feb 18 12:42:14 2017.
