 Gaussian 09, Revision E.01,
 Gaussian 09:  ES64L-G09RevE.01 30-Nov-2015

 ----------------------------------------------------------------------
 #rhf/gen scf(symm,tight,novaracc,noincfock,fulldiag) stable(crhf) gues
 s=read geom=nocrowd test
 ----------------------------------------------------------------------

 ----------------------------------------------------------------------
 hf stability analysis of h10 triangular lattice, y= 2.3437412473608381
 ----------------------------------------------------------------------
 Symbolic Z-matrix:
 Charge =  0 Multiplicity = 1

                         Standard orientation:
 ---------------------------------------------------------------------
 Center     Atomic      Atomic             Coordinates (Angstroms)
 Number     Number       Type             X           Y           Z
 ---------------------------------------------------------------------
      1          1           0        0.000000    0.246337    4.687482
      2          1           0        0.000000    0.492674    2.343741
      3          1           0        0.000000   -0.000000    2.343741
      4          1           0        0.000000    0.246337    0.000000
      5          1           0        0.000000    0.000000   -2.343741
      6          1           0       -0.000000   -0.246337   -4.687482
      7          1           0       -0.000000   -0.246337   -0.000000
      8          1           0       -0.000000   -0.492674   -2.343741
      9          1           0       -0.000000   -0.246337    4.687482
     10          1           0       -0.000000   -0.492674    2.343741
     11          1           0        0.000000    0.492674   -2.343741
     12          1           0        0.000000    0.246337   -4.687482
 ---------------------------------------------------------------------

 SCF Done:  E(RHF) =  -3.53199512528     A.U. after   11 cycles
 E2 =    -0.1477575401D+00 EUMP2 =    -0.36797526653373D+01

 The electronic state is 1-AG.
 Alpha  occ. eigenvalues --   -0.82865  -0.78610  -0.74607  -0.70910  -0.17934
 Alpha  occ. eigenvalues --   -0.17196
 Alpha virt. eigenvalues --   -0.59357   0.46492   0.56667   0.56817   1.56865
 Alpha virt. eigenvalues --    1.56913

 Mulliken charges:
               1
     1  H    0.102351
     2  H   -0.175903
     3  H   -0.137774
     4  H    0.284877
     5  H   -0.137774
     6  H    0.102351
     7  H    0.284877
     8  H   -0.175903
     9  H    0.102351
    10  H   -0.175903
    11  H   -0.175903
    12  H    0.102351
 Sum of Mulliken charges =  -0.00000

 Dipole moment (field-independent basis, Debye):
    X=             -0.0000    Y=             -0.0000    Z=             -0.0000  Tot=              0.0000
 Quadrupole moment (field-independent basis, Debye-Ang):
   XX=            -15.2246   YY=            -21.2157   ZZ=              3.9004
   XY=             -0.0000   XZ=             -0.0000   YZ=              0.0000

 Normal termination of Gaussian 09 at Sat Feb 18 12:44:02 2017.
