 Gaussian 09, Revision E.01,
 Gaussian 09:  ES64L-G09RevE.01 30-Nov-2015

 ----------------------------------------------------------------------
 #rhf/gen scf(symm,tight,novaracc,noincfock,fulldiag) stable(crhf) gues
 s=read geom=nocrowd test
 ----------------------------------------------------------------------

 hf stability analysis of h10 triangular lattice, y= 0.7466864790071482
 4
 ----------------------------------------------------------------------
 Symbolic Z-matrix:
 Charge =  0 Multiplicity = 1

                         Standard orientation:
 ---------------------------------------------------------------------
 Center     Atomic      Atomic             Coordinates (Angstroms)
 Number     Number       Type             X           Y           Z
 ---------------------------------------------------------------------
      1          1           0        0.000000    1.493373    0.773216
      2          1           0        0.000000    0.746686    1.546433
      3          1           0        0.000000    0.746686    0.000000
      4          1           0        0.000000    0.000000    0.773216
      5          1           0       -0.000000   -0.746686   -0.000000
      6          1           0       -0.000000   -1.493373   -0.773216
      7          1           0        0.000000   -0.000000   -0.773216
      8          1           0       -0.000000   -0.746686   -1.546433
      9          1           0        0.000000    1.493373   -0.773216
     10          1           0        0.000000    0.746686   -1.546433
     11          1           0       -0.000000   -0.746686    1.546433
     12          1           0       -0.000000   -1.493373    0.773216
 ---------------------------------------------------------------------

 SCF Done:  E(RHF) =  -5.41593591482     A.U. after   17 cycles
 E2 =     0.2911722097D+00 EUMP2 =    -0.51247637051385D+01

 The electronic state is 1-AG.
 Alpha  occ. eigenvalues --   -0.94053  -0.71118  -0.69039  -0.45896  -0.33780
 Alpha  occ. eigenvalues --   -0.11640
 Alpha virt. eigenvalues --   -0.12582   0.13335   0.36926   0.38738   0.42743
 Alpha virt. eigenvalues --    0.87184

 Mulliken charges:
               1
     1  H    0.027259
     2  H    0.017889
     3  H   -0.012308
     4  H   -0.077988
     5  H   -0.012308
     6  H    0.027259
     7  H   -0.077988
     8  H    0.017889
     9  H    0.027259
    10  H    0.017889
    11  H    0.017889
    12  H    0.027259
 Sum of Mulliken charges =  -0.00000

 Dipole moment (field-independent basis, Debye):
    X=             -0.0000    Y=             -0.0000    Z=              0.0000  Tot=              0.0000
 Quadrupole moment (field-independent basis, Debye-Ang):
   XX=            -14.7218   YY=            -19.9121   ZZ=            -16.0752
   XY=             -0.0000   XZ=              0.0000   YZ=             -0.0000

 Normal termination of Gaussian 09 at Sat Feb 18 12:42:31 2017.
