 Gaussian 09, Revision E.01,
 Gaussian 09:  ES64L-G09RevE.01 30-Nov-2015

 ----------------------------------------------------------------------
 #rhf/gen scf(symm,tight,novaracc,noincfock,fulldiag) stable(crhf) gues
 s=read geom=nocrowd test
 ----------------------------------------------------------------------

 hf stability analysis of h10 triangular lattice, y= 0.7598357022583297
 5
 ----------------------------------------------------------------------
 Symbolic Z-matrix:
 Charge =  0 Multiplicity = 1

                         Standard orientation:
 ---------------------------------------------------------------------
 Center     Atomic      Atomic             Coordinates (Angstroms)
 Number     Number       Type             X           Y           Z
 ---------------------------------------------------------------------
      1          1           0        0.759836    1.519671    0.000000
      2          1           0        1.519671    0.759836   -0.000000
      3          1           0        0.000000    0.759836    0.000000
      4          1           0        0.759836   -0.000000    0.000000
      5          1           0       -0.000000   -0.759836    0.000000
      6          1           0       -0.759836   -1.519671    0.000000
      7          1           0       -0.759836    0.000000    0.000000
      8          1           0       -1.519671   -0.759836   -0.000000
      9          1           0       -0.759836    1.519671   -0.000000
     10          1           0       -1.519671    0.759836    0.000000
     11          1           0        1.519671   -0.759836    0.000000
     12          1           0        0.759836   -1.519671   -0.000000
 ---------------------------------------------------------------------

 SCF Done:  E(RHF) =  -5.43296346397     A.U. after   23 cycles
 E2 =     0.2993046023D+01 EUMP2 =    -0.24399174412397D+01

 Unable to determine electronic state:  an orbital has unidentified symmetry.
 Alpha  occ. eigenvalues --   -0.94093  -0.71905  -0.68509  -0.45482  -0.35192
 Alpha  occ. eigenvalues --   -0.11092
 Alpha virt. eigenvalues --   -0.11221   0.12888   0.36450   0.39459   0.42835
 Alpha virt. eigenvalues --    0.87128

 Mulliken charges:
               1
     1  H    0.050641
     2  H    0.000143
     3  H   -0.027747
     4  H   -0.073822
     5  H   -0.027747
     6  H    0.050641
     7  H   -0.073822
     8  H    0.000143
     9  H    0.050641
    10  H    0.000143
    11  H    0.000143
    12  H    0.050641
 Sum of Mulliken charges =  -0.00000

 Dipole moment (field-independent basis, Debye):
    X=             -0.0000    Y=             -0.0000    Z=             -0.0000  Tot=              0.0000
 Quadrupole moment (field-independent basis, Debye-Ang):
   XX=            -16.9968   YY=            -18.8056   ZZ=            -14.7229
   XY=              0.0000   XZ=             -0.0000   YZ=             -0.0000

 Normal termination of Gaussian 09 at Sat Feb 18 12:42:34 2017.
