 Gaussian 09, Revision E.01,
 Gaussian 09:  ES64L-G09RevE.01 30-Nov-2015

 ----------------------------------------------------------------------
 #rhf/gen scf(symm,tight,novaracc,noincfock,fulldiag) stable(crhf) gues
 s=read geom=nocrowd test
 ----------------------------------------------------------------------

 hf stability analysis of h10 triangular lattice, y= 0.3503135618487248
 1
 ----------------------------------------------------------------------
 Symbolic Z-matrix:
 Charge =  0 Multiplicity = 1

                         Standard orientation:
 ---------------------------------------------------------------------
 Center     Atomic      Atomic             Coordinates (Angstroms)
 Number     Number       Type             X           Y           Z
 ---------------------------------------------------------------------
      1          1           0        0.000000    0.700627    1.648096
      2          1           0        0.000000    0.350314    3.296191
      3          1           0        0.000000    0.350314    0.000000
      4          1           0        0.000000    0.000000    1.648096
      5          1           0       -0.000000   -0.350314   -0.000000
      6          1           0       -0.000000   -0.700627   -1.648096
      7          1           0        0.000000    0.000000   -1.648096
      8          1           0       -0.000000   -0.350314   -3.296191
      9          1           0        0.000000    0.700627   -1.648096
     10          1           0        0.000000    0.350314   -3.296191
     11          1           0       -0.000000   -0.350314    3.296191
     12          1           0       -0.000000   -0.700627    1.648096
 ---------------------------------------------------------------------

 SCF Done:  E(RHF) =  -3.95424420898     A.U. after   15 cycles
 E2 =    -0.4939106794D+00 EUMP2 =    -0.44481548884191D+01

 The electronic state is 1-AG.
 Alpha  occ. eigenvalues --   -0.83345  -0.79358  -0.58066  -0.33878  -0.29934
 Alpha  occ. eigenvalues --    0.13658
 Alpha virt. eigenvalues --   -0.35956  -0.26001   0.28342   0.49863   0.87594
 Alpha virt. eigenvalues --    0.89484

 Mulliken charges:
               1
     1  H   -0.154197
     2  H    0.129552
     3  H    0.038533
     4  H    0.010755
     5  H    0.038533
     6  H   -0.154197
     7  H    0.010755
     8  H    0.129552
     9  H   -0.154197
    10  H    0.129552
    11  H    0.129552
    12  H   -0.154197
 Sum of Mulliken charges =  -0.00000

 Dipole moment (field-independent basis, Debye):
    X=              0.0000    Y=             -0.0000    Z=             -0.0000  Tot=              0.0000
 Quadrupole moment (field-independent basis, Debye-Ang):
   XX=            -14.9712   YY=            -23.8777   ZZ=              6.0799
   XY=             -0.0000   XZ=             -0.0000   YZ=             -0.0000

 Normal termination of Gaussian 09 at Sat Feb 18 12:41:22 2017.
