 Gaussian 09, Revision E.01,
 Gaussian 09:  ES64L-G09RevE.01 30-Nov-2015

 ----------------------------------------------------------------------
 #rhf/gen scf(symm,tight,novaracc,noincfock,fulldiag) stable(crhf) gues
 s=read geom=nocrowd test
 ----------------------------------------------------------------------

 hf stability analysis of h10 triangular lattice, y= 0.6960275979088506
 0
 ----------------------------------------------------------------------
 Symbolic Z-matrix:
 Charge =  0 Multiplicity = 1

                         Standard orientation:
 ---------------------------------------------------------------------
 Center     Atomic      Atomic             Coordinates (Angstroms)
 Number     Number       Type             X           Y           Z
 ---------------------------------------------------------------------
      1          1           0        0.000000    1.392055    0.829493
      2          1           0        0.000000    0.696028    1.658987
      3          1           0       -0.000000    0.696028   -0.000000
      4          1           0        0.000000    0.000000    0.829493
      5          1           0       -0.000000   -0.696028    0.000000
      6          1           0       -0.000000   -1.392055   -0.829493
      7          1           0        0.000000    0.000000   -0.829493
      8          1           0       -0.000000   -0.696028   -1.658987
      9          1           0        0.000000    1.392055   -0.829493
     10          1           0        0.000000    0.696028   -1.658987
     11          1           0       -0.000000   -0.696028    1.658987
     12          1           0       -0.000000   -1.392055    0.829493
 ---------------------------------------------------------------------

 SCF Done:  E(RHF) =  -5.57559769904     A.U. after   17 cycles
 E2 =    -0.1035871692D+00 EUMP2 =    -0.56791848682865D+01

 The electronic state is 1-AG.
 Alpha  occ. eigenvalues --   -0.94200  -0.72749  -0.68040  -0.47166  -0.41022
 Alpha  occ. eigenvalues --   -0.13012
 Alpha virt. eigenvalues --   -0.04065   0.15824   0.26439   0.42678   0.49172
 Alpha virt. eigenvalues --    0.81632

 Mulliken charges:
               1
     1  H    0.271095
     2  H   -0.227161
     3  H   -0.390632
     4  H    0.302764
     5  H   -0.390632
     6  H    0.271095
     7  H    0.302764
     8  H   -0.227161
     9  H    0.271095
    10  H   -0.227161
    11  H   -0.227161
    12  H    0.271095
 Sum of Mulliken charges =  -0.00000

 Dipole moment (field-independent basis, Debye):
    X=             -0.0000    Y=              0.0000    Z=              0.0000  Tot=              0.0000
 Quadrupole moment (field-independent basis, Debye-Ang):
   XX=            -14.8615   YY=            -10.8152   ZZ=            -27.1530
   XY=              0.0000   XZ=              0.0000   YZ=             -0.0000

 Normal termination of Gaussian 09 at Sat Feb 18 12:42:23 2017.
