 Gaussian 09, Revision E.01,
 Gaussian 09:  ES64L-G09RevE.01 30-Nov-2015

 ----------------------------------------------------------------------
 #rhf/gen scf(symm,tight,novaracc,noincfock,fulldiag) stable(crhf) gues
 s=read geom=nocrowd test
 ----------------------------------------------------------------------

 hf stability analysis of h10 triangular lattice, y= 0.6716215332591580
 8
 ----------------------------------------------------------------------
 Symbolic Z-matrix:
 Charge =  0 Multiplicity = 1

                         Standard orientation:
 ---------------------------------------------------------------------
 Center     Atomic      Atomic             Coordinates (Angstroms)
 Number     Number       Type             X           Y           Z
 ---------------------------------------------------------------------
      1          1           0        0.000000    1.343243    0.859636
      2          1           0        0.000000    0.671622    1.719273
      3          1           0        0.000000    0.671622    0.000000
      4          1           0       -0.000000    0.000000    0.859636
      5          1           0       -0.000000   -0.671622    0.000000
      6          1           0       -0.000000   -1.343243   -0.859636
      7          1           0        0.000000    0.000000   -0.859636
      8          1           0       -0.000000   -0.671622   -1.719273
      9          1           0        0.000000    1.343243   -0.859636
     10          1           0        0.000000    0.671622   -1.719273
     11          1           0       -0.000000   -0.671622    1.719273
     12          1           0       -0.000000   -1.343243    0.859636
 ---------------------------------------------------------------------

 SCF Done:  E(RHF) =  -5.60867378053     A.U. after   15 cycles
 E2 =    -0.1064505623D+00 EUMP2 =    -0.57151243427784D+01

 The electronic state is 1-AG.
 Alpha  occ. eigenvalues --   -0.94220  -0.74057  -0.66749  -0.46941  -0.42945
 Alpha  occ. eigenvalues --   -0.13023
 Alpha virt. eigenvalues --   -0.01051   0.16523   0.22593   0.42033   0.53416
 Alpha virt. eigenvalues --    0.76277

 Mulliken charges:
               1
     1  H    0.258134
     2  H   -0.206800
     3  H   -0.381068
     4  H    0.278400
     5  H   -0.381068
     6  H    0.258134
     7  H    0.278400
     8  H   -0.206800
     9  H    0.258134
    10  H   -0.206800
    11  H   -0.206800
    12  H    0.258134
 Sum of Mulliken charges =  -0.00000

 Dipole moment (field-independent basis, Debye):
    X=             -0.0000    Y=              0.0000    Z=             -0.0000  Tot=              0.0000
 Quadrupole moment (field-independent basis, Debye-Ang):
   XX=            -14.8948   YY=            -11.9041   ZZ=            -26.4342
   XY=              0.0000   XZ=              0.0000   YZ=              0.0000

 Normal termination of Gaussian 09 at Sat Feb 18 12:42:18 2017.
