 Gaussian 09, Revision E.01,
 Gaussian 09:  ES64L-G09RevE.01 30-Nov-2015

 ----------------------------------------------------------------------
 #rhf/gen scf(symm,tight,novaracc,noincfock,fulldiag) stable(crhf) gues
 s=read geom=nocrowd test
 ----------------------------------------------------------------------

 hf stability analysis of h10 triangular lattice, y= 0.7084369783301545
 1
 ----------------------------------------------------------------------
 Symbolic Z-matrix:
 Charge =  0 Multiplicity = 1

                         Standard orientation:
 ---------------------------------------------------------------------
 Center     Atomic      Atomic             Coordinates (Angstroms)
 Number     Number       Type             X           Y           Z
 ---------------------------------------------------------------------
      1          1           0        0.000000    1.416874    0.814963
      2          1           0        0.000000    0.708437    1.629927
      3          1           0        0.000000    0.708437    0.000000
      4          1           0        0.000000   -0.000000    0.814963
      5          1           0       -0.000000   -0.708437   -0.000000
      6          1           0       -0.000000   -1.416874   -0.814963
      7          1           0        0.000000    0.000000   -0.814963
      8          1           0       -0.000000   -0.708437   -1.629927
      9          1           0        0.000000    1.416874   -0.814963
     10          1           0        0.000000    0.708437   -1.629927
     11          1           0       -0.000000   -0.708437    1.629927
     12          1           0       -0.000000   -1.416874    0.814963
 ---------------------------------------------------------------------

 SCF Done:  E(RHF) =  -5.55505510688     A.U. after   18 cycles
 E2 =    -0.1028646776D+00 EUMP2 =    -0.56579197845181D+01

 The electronic state is 1-AG.
 Alpha  occ. eigenvalues --   -0.94150  -0.72050  -0.68602  -0.47282  -0.40054
 Alpha  occ. eigenvalues --   -0.12927
 Alpha virt. eigenvalues --   -0.05483   0.15316   0.28627   0.42925   0.46916
 Alpha virt. eigenvalues --    0.83819

 Mulliken charges:
               1
     1  H    0.274938
     2  H   -0.235846
     3  H   -0.393513
     4  H    0.315328
     5  H   -0.393513
     6  H    0.274938
     7  H    0.315328
     8  H   -0.235846
     9  H    0.274938
    10  H   -0.235846
    11  H   -0.235846
    12  H    0.274938
 Sum of Mulliken charges =  -0.00000

 Dipole moment (field-independent basis, Debye):
    X=             -0.0000    Y=             -0.0000    Z=              0.0000  Tot=              0.0000
 Quadrupole moment (field-independent basis, Debye-Ang):
   XX=            -14.8455   YY=            -10.3410   ZZ=            -27.4123
   XY=              0.0000   XZ=              0.0000   YZ=              0.0000

 Normal termination of Gaussian 09 at Sat Feb 18 12:42:25 2017.
