 Gaussian 09, Revision E.01,
 Gaussian 09:  ES64L-G09RevE.01 30-Nov-2015

 ----------------------------------------------------------------------
 #rhf/gen scf(symm,tight,novaracc,noincfock,fulldiag) stable(crhf) gues
 s=read geom=nocrowd test
 ----------------------------------------------------------------------

 hf stability analysis of h10 triangular lattice, y= 0.8443744677903469
 7
 ----------------------------------------------------------------------
 Symbolic Z-matrix:
 Charge =  0 Multiplicity = 1

                         Standard orientation:
 ---------------------------------------------------------------------
 Center     Atomic      Atomic             Coordinates (Angstroms)
 Number     Number       Type             X           Y           Z
 ---------------------------------------------------------------------
      1          1           0        0.000000    0.683761    1.688749
      2          1           0        0.000000    1.367522    0.844374
      3          1           0        0.000000    0.000000    0.844374
      4          1           0       -0.000000    0.683761   -0.000000
      5          1           0        0.000000   -0.000000   -0.844374
      6          1           0       -0.000000   -0.683761   -1.688749
      7          1           0       -0.000000   -0.683761    0.000000
      8          1           0       -0.000000   -1.367522   -0.844374
      9          1           0       -0.000000   -0.683761    1.688749
     10          1           0       -0.000000   -1.367522    0.844374
     11          1           0        0.000000    1.367522   -0.844374
     12          1           0        0.000000    0.683761   -1.688749
 ---------------------------------------------------------------------

 SCF Done:  E(RHF) =  -5.48638277714     A.U. after   22 cycles
 E2 =    -0.2978914998D+00 EUMP2 =    -0.57842742769785D+01

 The electronic state is 1-AG.
 Alpha  occ. eigenvalues --   -0.95493  -0.75834  -0.64241  -0.45567  -0.43646
 Alpha  occ. eigenvalues --   -0.07469
 Alpha virt. eigenvalues --   -0.03865   0.10918   0.21295   0.41954   0.52309
 Alpha virt. eigenvalues --    0.77383

 Mulliken charges:
               1
     1  H    0.071432
     2  H   -0.068085
     3  H    0.034952
     4  H   -0.041644
     5  H    0.034952
     6  H    0.071432
     7  H   -0.041644
     8  H   -0.068085
     9  H    0.071432
    10  H   -0.068085
    11  H   -0.068085
    12  H    0.071432
 Sum of Mulliken charges =  -0.00000

 Dipole moment (field-independent basis, Debye):
    X=              0.0000    Y=              0.0000    Z=              0.0000  Tot=              0.0000
 Quadrupole moment (field-independent basis, Debye-Ang):
   XX=            -14.8158   YY=            -20.0673   ZZ=            -16.6846
   XY=             -0.0000   XZ=              0.0000   YZ=              0.0000

 Normal termination of Gaussian 09 at Sat Feb 18 12:42:49 2017.
