 Gaussian 09, Revision E.01,
 Gaussian 09:  ES64L-G09RevE.01 30-Nov-2015

 ----------------------------------------------------------------------
 #rhf/gen scf(symm,tight,novaracc,noincfock,fulldiag) stable(crhf) gues
 s=read geom=nocrowd test
 ----------------------------------------------------------------------

 ----------------------------------------------------------------------
 hf stability analysis of h10 triangular lattice, y= 1.6480958607190197
 ----------------------------------------------------------------------
 Symbolic Z-matrix:
 Charge =  0 Multiplicity = 1

                         Standard orientation:
 ---------------------------------------------------------------------
 Center     Atomic      Atomic             Coordinates (Angstroms)
 Number     Number       Type             X           Y           Z
 ---------------------------------------------------------------------
      1          1           0        0.000000    0.350314    3.296192
      2          1           0       -0.000000    0.700627    1.648096
      3          1           0       -0.000000   -0.000000    1.648096
      4          1           0       -0.000000    0.350314    0.000000
      5          1           0        0.000000    0.000000   -1.648096
      6          1           0       -0.000000   -0.350314   -3.296192
      7          1           0       -0.000000   -0.350314   -0.000000
      8          1           0       -0.000000   -0.700627   -1.648096
      9          1           0       -0.000000   -0.350314    3.296192
     10          1           0       -0.000000   -0.700627    1.648096
     11          1           0        0.000000    0.700627   -1.648096
     12          1           0        0.000000    0.350314   -3.296192
 ---------------------------------------------------------------------

 SCF Done:  E(RHF) =  -5.40256271749     A.U. after   10 cycles
 E2 =    -0.5428144535D-01 EUMP2 =    -0.54568441628413D+01

 The electronic state is 1-AG.
 Alpha  occ. eigenvalues --   -0.87444  -0.80530  -0.67716  -0.58699  -0.34799
 Alpha  occ. eigenvalues --   -0.29771
 Alpha virt. eigenvalues --   -0.35467   0.33137   0.44144   0.49382   0.87856
 Alpha virt. eigenvalues --    0.89793

 Mulliken charges:
               1
     1  H    0.069990
     2  H   -0.205257
     3  H   -0.006867
     4  H    0.277400
     5  H   -0.006867
     6  H    0.069990
     7  H    0.277400
     8  H   -0.205257
     9  H    0.069990
    10  H   -0.205257
    11  H   -0.205257
    12  H    0.069990
 Sum of Mulliken charges =  -0.00000

 Dipole moment (field-independent basis, Debye):
    X=              0.0000    Y=             -0.0000    Z=              0.0000  Tot=              0.0000
 Quadrupole moment (field-independent basis, Debye-Ang):
   XX=            -15.6145   YY=            -21.2168   ZZ=            -12.1051
   XY=             -0.0000   XZ=             -0.0000   YZ=             -0.0000

 Normal termination of Gaussian 09 at Sat Feb 18 12:43:49 2017.
