 Gaussian 09, Revision E.01,
 Gaussian 09:  ES64L-G09RevE.01 30-Nov-2015

 ----------------------------------------------------------------------
 #rhf/gen scf(symm,tight,novaracc,noincfock,fulldiag) stable(crhf) gues
 s=read geom=nocrowd test
 ----------------------------------------------------------------------

 hf stability analysis of h10 triangular lattice, y= 0.6240414150047446
 4
 ----------------------------------------------------------------------
 Symbolic Z-matrix:
 Charge =  0 Multiplicity = 1

                         Standard orientation:
 ---------------------------------------------------------------------
 Center     Atomic      Atomic             Coordinates (Angstroms)
 Number     Number       Type             X           Y           Z
 ---------------------------------------------------------------------
      1          1           0        0.000000    1.248083    0.925179
      2          1           0        0.000000    0.624041    1.850359
      3          1           0       -0.000000    0.624041    0.000000
      4          1           0        0.000000   -0.000000    0.925179
      5          1           0       -0.000000   -0.624041   -0.000000
      6          1           0       -0.000000   -1.248083   -0.925179
      7          1           0        0.000000    0.000000   -0.925179
      8          1           0       -0.000000   -0.624041   -1.850359
      9          1           0        0.000000    1.248083   -0.925179
     10          1           0        0.000000    0.624041   -1.850359
     11          1           0       -0.000000   -0.624041    1.850359
     12          1           0       -0.000000   -1.248083    0.925179
 ---------------------------------------------------------------------

 SCF Done:  E(RHF) =  -5.63844799143     A.U. after   13 cycles
 E2 =    -0.1158488512D+00 EUMP2 =    -0.57542968426144D+01

 The electronic state is 1-AG.
 Alpha  occ. eigenvalues --   -0.93955  -0.76393  -0.63677  -0.46527  -0.46279
 Alpha  occ. eigenvalues --   -0.12328
 Alpha virt. eigenvalues --    0.05635   0.11076   0.22721   0.40211   0.60304
 Alpha virt. eigenvalues --    0.62692

 Mulliken charges:
               1
     1  H    0.222214
     2  H   -0.162251
     3  H   -0.353959
     4  H    0.234033
     5  H   -0.353959
     6  H    0.222214
     7  H    0.234033
     8  H   -0.162251
     9  H    0.222214
    10  H   -0.162251
    11  H   -0.162251
    12  H    0.222214
 Sum of Mulliken charges =   0.00000

 Dipole moment (field-independent basis, Debye):
    X=             -0.0000    Y=             -0.0000    Z=             -0.0000  Tot=              0.0000
 Quadrupole moment (field-independent basis, Debye-Ang):
   XX=            -14.9641   YY=            -14.1826   ZZ=            -24.5386
   XY=             -0.0000   XZ=              0.0000   YZ=              0.0000

 Normal termination of Gaussian 09 at Sat Feb 18 12:42:09 2017.
