 Gaussian 09, Revision E.01,
 Gaussian 09:  ES64L-G09RevE.01 30-Nov-2015

 ----------------------------------------------------------------------
 #rhf/gen scf(symm,tight,novaracc,noincfock,fulldiag) stable(crhf) gues
 s=read geom=nocrowd test
 ----------------------------------------------------------------------

 hf stability analysis of h10 triangular lattice, y= 0.3350007865764852
 4
 ----------------------------------------------------------------------
 Symbolic Z-matrix:
 Charge =  0 Multiplicity = 1

                         Standard orientation:
 ---------------------------------------------------------------------
 Center     Atomic      Atomic             Coordinates (Angstroms)
 Number     Number       Type             X           Y           Z
 ---------------------------------------------------------------------
      1          1           0       -0.000000    0.670002    1.723430
      2          1           0       -0.000000    0.335001    3.446859
      3          1           0        0.000000    0.335001   -0.000000
      4          1           0       -0.000000    0.000000    1.723430
      5          1           0       -0.000000   -0.335001    0.000000
      6          1           0       -0.000000   -0.670002   -1.723430
      7          1           0        0.000000   -0.000000   -1.723430
      8          1           0       -0.000000   -0.335001   -3.446859
      9          1           0        0.000000    0.670002   -1.723430
     10          1           0        0.000000    0.335001   -3.446859
     11          1           0       -0.000000   -0.335001    3.446859
     12          1           0       -0.000000   -0.670002    1.723430
 ---------------------------------------------------------------------

 SCF Done:  E(RHF) =  -3.70121789165     A.U. after   16 cycles
 E2 =    -0.4975119403D+00 EUMP2 =    -0.41987298319789D+01

 The electronic state is 1-AG.
 Alpha  occ. eigenvalues --   -0.81778  -0.78327  -0.59062  -0.30743  -0.27509
 Alpha  occ. eigenvalues --    0.15303
 Alpha virt. eigenvalues --   -0.37022  -0.30034   0.27244   0.51262   0.96795
 Alpha virt. eigenvalues --    0.98248

 Mulliken charges:
               1
     1  H   -0.179783
     2  H    0.155212
     3  H    0.059074
     4  H   -0.009932
     5  H    0.059074
     6  H   -0.179783
     7  H   -0.009932
     8  H    0.155212
     9  H   -0.179783
    10  H    0.155212
    11  H    0.155212
    12  H   -0.179783
 Sum of Mulliken charges =  -0.00000

 Dipole moment (field-independent basis, Debye):
    X=              0.0000    Y=             -0.0000    Z=             -0.0000  Tot=              0.0000
 Quadrupole moment (field-independent basis, Debye-Ang):
   XX=            -14.8633   YY=            -23.9776   ZZ=             11.8122
   XY=             -0.0000   XZ=             -0.0000   YZ=              0.0000

 Normal termination of Gaussian 09 at Sat Feb 18 12:41:20 2017.
