 Gaussian 09, Revision E.01,
 Gaussian 09:  ES64L-G09RevE.01 30-Nov-2015

 ----------------------------------------------------------------------
 #rhf/gen scf(symm,tight,novaracc,noincfock,fulldiag) stable(crhf) gues
 s=read geom=nocrowd test
 ----------------------------------------------------------------------

 hf stability analysis of h10 triangular lattice, y= 0.4068814698559844
 5
 ----------------------------------------------------------------------
 Symbolic Z-matrix:
 Charge =  0 Multiplicity = 1

                         Standard orientation:
 ---------------------------------------------------------------------
 Center     Atomic      Atomic             Coordinates (Angstroms)
 Number     Number       Type             X           Y           Z
 ---------------------------------------------------------------------
      1          1           0       -0.000000    0.813763    1.418964
      2          1           0       -0.000000    0.406881    2.837929
      3          1           0       -0.000000    0.406881   -0.000000
      4          1           0        0.000000    0.000000    1.418964
      5          1           0       -0.000000   -0.406881    0.000000
      6          1           0       -0.000000   -0.813763   -1.418964
      7          1           0        0.000000   -0.000000   -1.418964
      8          1           0       -0.000000   -0.406881   -2.837929
      9          1           0        0.000000    0.813763   -1.418964
     10          1           0        0.000000    0.406881   -2.837929
     11          1           0       -0.000000   -0.406881    2.837929
     12          1           0       -0.000000   -0.813763    1.418964
 ---------------------------------------------------------------------

 SCF Done:  E(RHF) =  -4.69652571853     A.U. after   14 cycles
 E2 =    -0.2812375163D+00 EUMP2 =    -0.49777632347871D+01

 The electronic state is 1-AG.
 Alpha  occ. eigenvalues --   -0.87041  -0.81032  -0.56365  -0.42375  -0.36078
 Alpha  occ. eigenvalues --    0.05880
 Alpha virt. eigenvalues --   -0.28419  -0.10019   0.29808   0.53227   0.61242
 Alpha virt. eigenvalues --    0.65089

 Mulliken charges:
               1
     1  H   -0.063289
     2  H    0.065517
     3  H   -0.076250
     4  H    0.071794
     5  H   -0.076250
     6  H   -0.063289
     7  H    0.071794
     8  H    0.065517
     9  H   -0.063289
    10  H    0.065517
    11  H    0.065517
    12  H   -0.063289
 Sum of Mulliken charges =  -0.00000

 Dipole moment (field-independent basis, Debye):
    X=              0.0000    Y=             -0.0000    Z=             -0.0000  Tot=              0.0000
 Quadrupole moment (field-independent basis, Debye-Ang):
   XX=            -15.1429   YY=            -22.8839   ZZ=             -5.2449
   XY=             -0.0000   XZ=             -0.0000   YZ=              0.0000

 Normal termination of Gaussian 09 at Sat Feb 18 12:41:30 2017.
