 Gaussian 09, Revision E.01,
 Gaussian 09:  ES64L-G09RevE.01 30-Nov-2015

 ----------------------------------------------------------------------
 #rhf/gen scf(symm,tight,novaracc,noincfock,fulldiag) stable(crhf) gues
 s=read geom=nocrowd test
 ----------------------------------------------------------------------

 hf stability analysis of h10 triangular lattice, y= 0.4331194750473593
 1
 ----------------------------------------------------------------------
 Symbolic Z-matrix:
 Charge =  0 Multiplicity = 1

                         Standard orientation:
 ---------------------------------------------------------------------
 Center     Atomic      Atomic             Coordinates (Angstroms)
 Number     Number       Type             X           Y           Z
 ---------------------------------------------------------------------
      1          1           0       -0.000000    0.866239    1.333005
      2          1           0       -0.000000    0.433119    2.666009
      3          1           0        0.000000    0.433119   -0.000000
      4          1           0       -0.000000    0.000000    1.333005
      5          1           0       -0.000000   -0.433119   -0.000000
      6          1           0       -0.000000   -0.866239   -1.333005
      7          1           0        0.000000    0.000000   -1.333005
      8          1           0       -0.000000   -0.433119   -2.666009
      9          1           0        0.000000    0.866239   -1.333005
     10          1           0        0.000000    0.433119   -2.666009
     11          1           0       -0.000000   -0.433119    2.666009
     12          1           0       -0.000000   -0.866239    1.333005
 ---------------------------------------------------------------------

 SCF Done:  E(RHF) =  -4.94990029118     A.U. after   12 cycles
 E2 =    -0.2317358407D+00 EUMP2 =    -0.51816361318910D+01

 The electronic state is 1-AG.
 Alpha  occ. eigenvalues --   -0.88396  -0.81251  -0.55767  -0.45615  -0.38167
 Alpha  occ. eigenvalues --    0.02458
 Alpha virt. eigenvalues --   -0.24034  -0.02285   0.30541   0.51674   0.56014
 Alpha virt. eigenvalues --    0.56549

 Mulliken charges:
               1
     1  H   -0.020614
     2  H    0.037736
     3  H   -0.127243
     4  H    0.092998
     5  H   -0.127243
     6  H   -0.020614
     7  H    0.092998
     8  H    0.037736
     9  H   -0.020614
    10  H    0.037736
    11  H    0.037736
    12  H   -0.020614
 Sum of Mulliken charges =  -0.00000

 Dipole moment (field-independent basis, Debye):
    X=              0.0000    Y=              0.0000    Z=             -0.0000  Tot=              0.0000
 Quadrupole moment (field-independent basis, Debye-Ang):
   XX=            -15.1646   YY=            -22.1714   ZZ=             -8.9273
   XY=             -0.0000   XZ=             -0.0000   YZ=              0.0000

 Normal termination of Gaussian 09 at Sat Feb 18 12:41:35 2017.
