 Gaussian 09, Revision E.01,
 Gaussian 09:  ES64L-G09RevE.01 30-Nov-2015

 ----------------------------------------------------------------------
 #rhf/gen scf(symm,tight,novaracc,noincfock,fulldiag) stable(crhf) gues
 s=read geom=nocrowd test
 ----------------------------------------------------------------------

 ----------------------------------------------------------------------
 hf stability analysis of h10 triangular lattice, y= 1.0879998015825072
 ----------------------------------------------------------------------
 Symbolic Z-matrix:
 Charge =  0 Multiplicity = 1

                         Standard orientation:
 ---------------------------------------------------------------------
 Center     Atomic      Atomic             Coordinates (Angstroms)
 Number     Number       Type             X           Y           Z
 ---------------------------------------------------------------------
      1          1           0       -0.000000    0.530653    2.176000
      2          1           0       -0.000000    1.061306    1.088000
      3          1           0       -0.000000    0.000000    1.088000
      4          1           0       -0.000000    0.530653   -0.000000
      5          1           0        0.000000   -0.000000   -1.088000
      6          1           0       -0.000000   -0.530653   -2.176000
      7          1           0       -0.000000   -0.530653    0.000000
      8          1           0       -0.000000   -1.061306   -1.088000
      9          1           0       -0.000000   -0.530653    2.176000
     10          1           0       -0.000000   -1.061306    1.088000
     11          1           0        0.000000    1.061306   -1.088000
     12          1           0        0.000000    0.530653   -2.176000
 ---------------------------------------------------------------------

 SCF Done:  E(RHF) =  -5.98455918567     A.U. after    9 cycles
 E2 =    -0.1141450130D+00 EUMP2 =    -0.60987041986924D+01

 The electronic state is 1-AG.
 Alpha  occ. eigenvalues --   -0.95516  -0.81021  -0.57323  -0.56548  -0.41446
 Alpha  occ. eigenvalues --   -0.32502
 Alpha virt. eigenvalues --    0.15438   0.16359   0.30892   0.34569   0.39931
 Alpha virt. eigenvalues --    0.63289

 Mulliken charges:
               1
     1  H   -0.035734
     2  H   -0.021365
     3  H    0.011790
     4  H    0.102409
     5  H    0.011790
     6  H   -0.035734
     7  H    0.102409
     8  H   -0.021365
     9  H   -0.035734
    10  H   -0.021365
    11  H   -0.021365
    12  H   -0.035734
 Sum of Mulliken charges =  -0.00000

 Dipole moment (field-independent basis, Debye):
    X=             -0.0000    Y=              0.0000    Z=             -0.0000  Tot=              0.0000
 Quadrupole moment (field-independent basis, Debye-Ang):
   XX=            -15.3684   YY=            -17.2690   ZZ=            -24.1190
   XY=             -0.0000   XZ=              0.0000   YZ=             -0.0000

 Normal termination of Gaussian 09 at Sat Feb 18 12:43:18 2017.
