 Gaussian 09, Revision E.01,
 Gaussian 09:  ES64L-G09RevE.01 30-Nov-2015

 ----------------------------------------------------------------------
 #rhf/gen scf(symm,tight,novaracc,noincfock,fulldiag) stable(crhf) gues
 s=read geom=nocrowd test
 ----------------------------------------------------------------------

 hf stability analysis of h10 triangular lattice, y= 0.4584084631436424
 2
 ----------------------------------------------------------------------
 Symbolic Z-matrix:
 Charge =  0 Multiplicity = 1

                         Standard orientation:
 ---------------------------------------------------------------------
 Center     Atomic      Atomic             Coordinates (Angstroms)
 Number     Number       Type             X           Y           Z
 ---------------------------------------------------------------------
      1          1           0        0.000000    0.916817    1.259467
      2          1           0        0.000000    0.458408    2.518934
      3          1           0       -0.000000    0.458408    0.000000
      4          1           0        0.000000    0.000000    1.259467
      5          1           0       -0.000000   -0.458408   -0.000000
      6          1           0       -0.000000   -0.916817   -1.259467
      7          1           0        0.000000   -0.000000   -1.259467
      8          1           0       -0.000000   -0.458408   -2.518934
      9          1           0        0.000000    0.916817   -1.259467
     10          1           0        0.000000    0.458408   -2.518934
     11          1           0       -0.000000   -0.458408    2.518934
     12          1           0       -0.000000   -0.916817    1.259467
 ---------------------------------------------------------------------

 SCF Done:  E(RHF) =  -5.14809348496     A.U. after   12 cycles
 E2 =    -0.2167893652D+00 EUMP2 =    -0.53648828501635D+01

 The electronic state is 1-AG.
 Alpha  occ. eigenvalues --   -0.89561  -0.81210  -0.55092  -0.48514  -0.39890
 Alpha  occ. eigenvalues --   -0.00599
 Alpha virt. eigenvalues --   -0.19613   0.05354   0.31506   0.43680   0.49527
 Alpha virt. eigenvalues --    0.58738

 Mulliken charges:
               1
     1  H    0.019494
     2  H    0.010680
     3  H   -0.171448
     4  H    0.111099
     5  H   -0.171448
     6  H    0.019494
     7  H    0.111099
     8  H    0.010680
     9  H    0.019494
    10  H    0.010680
    11  H    0.010680
    12  H    0.019494
 Sum of Mulliken charges =  -0.00000

 Dipole moment (field-independent basis, Debye):
    X=              0.0000    Y=             -0.0000    Z=             -0.0000  Tot=              0.0000
 Quadrupole moment (field-independent basis, Debye-Ang):
   XX=            -15.1651   YY=            -21.3599   ZZ=            -12.0113
   XY=             -0.0000   XZ=             -0.0000   YZ=             -0.0000

 Normal termination of Gaussian 09 at Sat Feb 18 12:41:39 2017.
