 Gaussian 09, Revision E.01,
 Gaussian 09:  ES64L-G09RevE.01 30-Nov-2015

 ----------------------------------------------------------------------
 #rhf/gen scf(symm,tight,novaracc,noincfock,fulldiag) stable(crhf) gues
 s=read geom=nocrowd test
 ----------------------------------------------------------------------

 hf stability analysis of h10 triangular lattice, y= 0.2848531043101661
 9
 ----------------------------------------------------------------------
 Symbolic Z-matrix:
 Charge =  0 Multiplicity = 1

                         Standard orientation:
 ---------------------------------------------------------------------
 Center     Atomic      Atomic             Coordinates (Angstroms)
 Number     Number       Type             X           Y           Z
 ---------------------------------------------------------------------
      1          1           0        0.000000    0.569706    2.026835
      2          1           0        0.000000    0.284853    4.053670
      3          1           0        0.000000    0.284853    0.000000
      4          1           0        0.000000   -0.000000    2.026835
      5          1           0       -0.000000   -0.284853   -0.000000
      6          1           0       -0.000000   -0.569706   -2.026835
      7          1           0        0.000000    0.000000   -2.026835
      8          1           0       -0.000000   -0.284853   -4.053670
      9          1           0        0.000000    0.569706   -2.026835
     10          1           0        0.000000    0.284853   -4.053670
     11          1           0       -0.000000   -0.284853    4.053670
     12          1           0       -0.000000   -0.569706    2.026835
 ---------------------------------------------------------------------

 SCF Done:  E(RHF) =  -2.67594744252     A.U. after   18 cycles
 E2 =    -0.6773595564D+00 EUMP2 =    -0.33533069989529D+01

 The electronic state is 1-AG.
 Alpha  occ. eigenvalues --   -0.76474  -0.75007  -0.61942  -0.19661  -0.18309
 Alpha  occ. eigenvalues --    0.18278
 Alpha virt. eigenvalues --   -0.42858  -0.40810   0.25605   0.59898   1.32173
 Alpha virt. eigenvalues --    1.32529

 Mulliken charges:
               1
     1  H   -0.223819
     2  H    0.238519
     3  H    0.074045
     4  H   -0.103447
     5  H    0.074045
     6  H   -0.223819
     7  H   -0.103447
     8  H    0.238519
     9  H   -0.223819
    10  H    0.238519
    11  H    0.238519
    12  H   -0.223819
 Sum of Mulliken charges =   0.00000

 Dipole moment (field-independent basis, Debye):
    X=              0.0000    Y=             -0.0000    Z=              0.0000  Tot=              0.0000
 Quadrupole moment (field-independent basis, Debye-Ang):
   XX=            -14.4866   YY=            -23.9155   ZZ=             40.8481
   XY=             -0.0000   XZ=             -0.0000   YZ=              0.0000

 Normal termination of Gaussian 09 at Sat Feb 18 12:41:13 2017.
