 Gaussian 09, Revision E.01,
 Gaussian 09:  ES64L-G09RevE.01 30-Nov-2015

 ----------------------------------------------------------------------
 #rhf/gen scf(symm,tight,novaracc,noincfock,fulldiag) stable(crhf) gues
 s=read geom=nocrowd test
 ----------------------------------------------------------------------

 hf stability analysis of h10 triangular lattice, y= 0.6595943070875844
 9
 ----------------------------------------------------------------------
 Symbolic Z-matrix:
 Charge =  0 Multiplicity = 1

                         Standard orientation:
 ---------------------------------------------------------------------
 Center     Atomic      Atomic             Coordinates (Angstroms)
 Number     Number       Type             X           Y           Z
 ---------------------------------------------------------------------
      1          1           0        0.000000    1.319189    0.875311
      2          1           0        0.000000    0.659594    1.750622
      3          1           0        0.000000    0.659594    0.000000
      4          1           0        0.000000   -0.000000    0.875311
      5          1           0       -0.000000   -0.659594   -0.000000
      6          1           0       -0.000000   -1.319189   -0.875311
      7          1           0        0.000000    0.000000   -0.875311
      8          1           0       -0.000000   -0.659594   -1.750622
      9          1           0        0.000000    1.319189   -0.875311
     10          1           0        0.000000    0.659594   -1.750622
     11          1           0       -0.000000   -0.659594    1.750622
     12          1           0       -0.000000   -1.319189    0.875311
 ---------------------------------------------------------------------

 SCF Done:  E(RHF) =  -5.62088026650     A.U. after   14 cycles
 E2 =    -0.1083574823D+00 EUMP2 =    -0.57292377487740D+01

 The electronic state is 1-AG.
 Alpha  occ. eigenvalues --   -0.94191  -0.74674  -0.66037  -0.46809  -0.43878
 Alpha  occ. eigenvalues --   -0.12943
 Alpha virt. eigenvalues --    0.00537   0.16160   0.21497   0.41640   0.55368
 Alpha virt. eigenvalues --    0.73178

 Mulliken charges:
               1
     1  H    0.250158
     2  H   -0.195970
     3  H   -0.375162
     4  H    0.266785
     5  H   -0.375162
     6  H    0.250158
     7  H    0.266785
     8  H   -0.195970
     9  H    0.250158
    10  H   -0.195970
    11  H   -0.195970
    12  H    0.250158
 Sum of Mulliken charges =   0.00000

 Dipole moment (field-independent basis, Debye):
    X=             -0.0000    Y=              0.0000    Z=              0.0000  Tot=              0.0000
 Quadrupole moment (field-independent basis, Debye-Ang):
   XX=            -14.9119   YY=            -12.4716   ZZ=            -26.0118
   XY=              0.0000   XZ=              0.0000   YZ=              0.0000

 Normal termination of Gaussian 09 at Sat Feb 18 12:42:16 2017.
