 Gaussian 09, Revision E.01,
 Gaussian 09:  ES64L-G09RevE.01 30-Nov-2015

 ----------------------------------------------------------------------
 #rhf/gen scf(symm,tight,novaracc,noincfock,fulldiag) stable(crhf) gues
 s=read geom=nocrowd test
 ----------------------------------------------------------------------

 hf stability analysis of h10 triangular lattice, y= 0.6358183901871248
 3
 ----------------------------------------------------------------------
 Symbolic Z-matrix:
 Charge =  0 Multiplicity = 1

                         Standard orientation:
 ---------------------------------------------------------------------
 Center     Atomic      Atomic             Coordinates (Angstroms)
 Number     Number       Type             X           Y           Z
 ---------------------------------------------------------------------
      1          1           0       -0.000000    1.271637    0.908043
      2          1           0       -0.000000    0.635818    1.816085
      3          1           0       -0.000000    0.635818    0.000000
      4          1           0       -0.000000   -0.000000    0.908043
      5          1           0       -0.000000   -0.635818   -0.000000
      6          1           0       -0.000000   -1.271637   -0.908043
      7          1           0        0.000000    0.000000   -0.908043
      8          1           0       -0.000000   -0.635818   -1.816085
      9          1           0        0.000000    1.271637   -0.908043
     10          1           0        0.000000    0.635818   -1.816085
     11          1           0       -0.000000   -0.635818    1.816085
     12          1           0       -0.000000   -1.271637    0.908043
 ---------------------------------------------------------------------

 SCF Done:  E(RHF) =  -5.63592580572     A.U. after   13 cycles
 E2 =    -0.1130390083D+00 EUMP2 =    -0.57489648140495D+01

 The electronic state is 1-AG.
 Alpha  occ. eigenvalues --   -0.94059  -0.75842  -0.64500  -0.46480  -0.45671
 Alpha  occ. eigenvalues --   -0.12597
 Alpha virt. eigenvalues --    0.03878   0.13118   0.21876   0.40726   0.58831
 Alpha virt. eigenvalues --    0.66345

 Mulliken charges:
               1
     1  H    0.232134
     2  H   -0.173650
     3  H   -0.361585
     4  H    0.244617
     5  H   -0.361585
     6  H    0.232134
     7  H    0.244617
     8  H   -0.173650
     9  H    0.232134
    10  H   -0.173650
    11  H   -0.173650
    12  H    0.232134
 Sum of Mulliken charges =   0.00000

 Dipole moment (field-independent basis, Debye):
    X=             -0.0000    Y=              0.0000    Z=              0.0000  Tot=              0.0000
 Quadrupole moment (field-independent basis, Debye-Ang):
   XX=            -14.9466   YY=            -13.6138   ZZ=            -25.0636
   XY=             -0.0000   XZ=              0.0000   YZ=              0.0000

 Normal termination of Gaussian 09 at Sat Feb 18 12:42:12 2017.
