 Gaussian 09, Revision E.01,
 Gaussian 09:  ES64L-G09RevE.01 30-Nov-2015

 ----------------------------------------------------------------------
 #rhf/gen scf(symm,tight,novaracc,noincfock,fulldiag) stable(crhf) gues
 s=read geom=nocrowd test
 ----------------------------------------------------------------------

 hf stability analysis of h10 triangular lattice, y= 0.4829747999860826
 7
 ----------------------------------------------------------------------
 Symbolic Z-matrix:
 Charge =  0 Multiplicity = 1

                         Standard orientation:
 ---------------------------------------------------------------------
 Center     Atomic      Atomic             Coordinates (Angstroms)
 Number     Number       Type             X           Y           Z
 ---------------------------------------------------------------------
      1          1           0        0.000000    0.965950    1.195405
      2          1           0        0.000000    0.482975    2.390809
      3          1           0       -0.000000    0.482975    0.000000
      4          1           0        0.000000    0.000000    1.195405
      5          1           0       -0.000000   -0.482975   -0.000000
      6          1           0       -0.000000   -0.965950   -1.195405
      7          1           0        0.000000    0.000000   -1.195405
      8          1           0       -0.000000   -0.482975   -2.390809
      9          1           0        0.000000    0.965950   -1.195405
     10          1           0        0.000000    0.482975   -2.390809
     11          1           0       -0.000000   -0.482975    2.390809
     12          1           0       -0.000000   -0.965950    1.195405
 ---------------------------------------------------------------------

 SCF Done:  E(RHF) =  -5.30205056210     A.U. after   12 cycles
 E2 =    -0.1812090877D+00 EUMP2 =    -0.54832596497893D+01

 The electronic state is 1-AG.
 Alpha  occ. eigenvalues --   -0.90567  -0.80953  -0.54294  -0.51163  -0.41333
 Alpha  occ. eigenvalues --   -0.03290
 Alpha virt. eigenvalues --   -0.15196   0.12746   0.32647   0.37085   0.43656
 Alpha virt. eigenvalues --    0.61155

 Mulliken charges:
               1
     1  H    0.056653
     2  H   -0.015725
     3  H   -0.209522
     4  H    0.127667
     5  H   -0.209522
     6  H    0.056653
     7  H    0.127667
     8  H   -0.015725
     9  H    0.056653
    10  H   -0.015725
    11  H   -0.015725
    12  H    0.056653
 Sum of Mulliken charges =  -0.00000

 Dipole moment (field-independent basis, Debye):
    X=              0.0000    Y=             -0.0000    Z=              0.0000  Tot=              0.0000
 Quadrupole moment (field-independent basis, Debye-Ang):
   XX=            -15.1515   YY=            -20.4711   ZZ=            -14.6394
   XY=             -0.0000   XZ=             -0.0000   YZ=              0.0000

 Normal termination of Gaussian 09 at Sat Feb 18 12:41:43 2017.
