 Gaussian 09, Revision E.01,
 Gaussian 09:  ES64L-G09RevE.01 30-Nov-2015

 ----------------------------------------------------------------------
 #rhf/gen scf(symm,tight,novaracc,noincfock,fulldiag) stable(crhf) gues
 s=read geom=nocrowd test
 ----------------------------------------------------------------------

 hf stability analysis of h10 triangular lattice, y= 0.4458672966047664
 3
 ----------------------------------------------------------------------
 Symbolic Z-matrix:
 Charge =  0 Multiplicity = 1

                         Standard orientation:
 ---------------------------------------------------------------------
 Center     Atomic      Atomic             Coordinates (Angstroms)
 Number     Number       Type             X           Y           Z
 ---------------------------------------------------------------------
      1          1           0       -0.000000    0.891735    1.294893
      2          1           0        0.000000    0.445867    2.589785
      3          1           0       -0.000000    0.445867   -0.000000
      4          1           0        0.000000    0.000000    1.294893
      5          1           0       -0.000000   -0.445867    0.000000
      6          1           0       -0.000000   -0.891735   -1.294893
      7          1           0        0.000000   -0.000000   -1.294893
      8          1           0       -0.000000   -0.445867   -2.589785
      9          1           0        0.000000    0.891735   -1.294893
     10          1           0        0.000000    0.445867   -2.589785
     11          1           0       -0.000000   -0.445867    2.589785
     12          1           0       -0.000000   -0.891735    1.294893
 ---------------------------------------------------------------------

 SCF Done:  E(RHF) =  -5.05512587001     A.U. after   12 cycles
 E2 =    -0.3192402708D+00 EUMP2 =    -0.53743661408049D+01

 The electronic state is 1-AG.
 Alpha  occ. eigenvalues --   -0.89000  -0.81260  -0.55443  -0.47101  -0.39068
 Alpha  occ. eigenvalues --    0.00884
 Alpha virt. eigenvalues --   -0.21824   0.01550   0.30997   0.47500   0.52875
 Alpha virt. eigenvalues --    0.57400

 Mulliken charges:
               1
     1  H   -0.000205
     2  H    0.024125
     3  H   -0.150164
     4  H    0.102324
     5  H   -0.150164
     6  H   -0.000205
     7  H    0.102324
     8  H    0.024125
     9  H   -0.000205
    10  H    0.024125
    11  H    0.024125
    12  H   -0.000205
 Sum of Mulliken charges =   0.00000

 Dipole moment (field-independent basis, Debye):
    X=              0.0000    Y=             -0.0000    Z=             -0.0000  Tot=              0.0000
 Quadrupole moment (field-independent basis, Debye-Ang):
   XX=            -15.1670   YY=            -21.7765   ZZ=            -10.5334
   XY=             -0.0000   XZ=             -0.0000   YZ=             -0.0000

 Normal termination of Gaussian 09 at Sat Feb 18 12:41:37 2017.
