 Gaussian 09, Revision E.01,
 Gaussian 09:  ES64L-G09RevE.01 30-Nov-2015

 ----------------------------------------------------------------------
 #rhf/gen scf(symm,tight,novaracc,noincfock,fulldiag) stable(crhf) gues
 s=read geom=nocrowd test
 ----------------------------------------------------------------------

 ----------------------------------------------------------------------
 hf stability analysis of h10 triangular lattice, y= 1.2594669489559134
 ----------------------------------------------------------------------
 Symbolic Z-matrix:
 Charge =  0 Multiplicity = 1

                         Standard orientation:
 ---------------------------------------------------------------------
 Center     Atomic      Atomic             Coordinates (Angstroms)
 Number     Number       Type             X           Y           Z
 ---------------------------------------------------------------------
      1          1           0        0.000000    0.458408    2.518934
      2          1           0        0.000000    0.916817    1.259467
      3          1           0       -0.000000    0.000000    1.259467
      4          1           0        0.000000    0.458408   -0.000000
      5          1           0        0.000000   -0.000000   -1.259467
      6          1           0       -0.000000   -0.458408   -2.518934
      7          1           0       -0.000000   -0.458408    0.000000
      8          1           0       -0.000000   -0.916817   -1.259467
      9          1           0       -0.000000   -0.458408    2.518934
     10          1           0       -0.000000   -0.916817    1.259467
     11          1           0        0.000000    0.916817   -1.259467
     12          1           0        0.000000    0.458408   -2.518934
 ---------------------------------------------------------------------

 SCF Done:  E(RHF) =  -5.99674542908     A.U. after    9 cycles
 E2 =    -0.1053891135D+00 EUMP2 =    -0.61021345426125D+01

 The electronic state is 1-AG.
 Alpha  occ. eigenvalues --   -0.93128  -0.82023  -0.61979  -0.48995  -0.43801
 Alpha  occ. eigenvalues --   -0.38092
 Alpha virt. eigenvalues --   -0.03478   0.21877   0.39605   0.44751   0.50573
 Alpha virt. eigenvalues --    0.58121

 Mulliken charges:
               1
     1  H    0.011503
     2  H   -0.100179
     3  H    0.004728
     4  H    0.172626
     5  H    0.004728
     6  H    0.011503
     7  H    0.172626
     8  H   -0.100179
     9  H    0.011503
    10  H   -0.100179
    11  H   -0.100179
    12  H    0.011503
 Sum of Mulliken charges =   0.00000

 Dipole moment (field-independent basis, Debye):
    X=              0.0000    Y=              0.0000    Z=              0.0000  Tot=              0.0000
 Quadrupole moment (field-independent basis, Debye-Ang):
   XX=            -15.5420   YY=            -19.3411   ZZ=            -20.4100
   XY=             -0.0000   XZ=              0.0000   YZ=             -0.0000

 Normal termination of Gaussian 09 at Sat Feb 18 12:43:31 2017.
