 Gaussian 09, Revision E.01,
 Gaussian 09:  ES64L-G09RevE.01 30-Nov-2015

 ----------------------------------------------------------------------
 #rhf/gen scf(symm,tight,novaracc,noincfock,fulldiag) stable(crhf) gues
 s=read geom=nocrowd test
 ----------------------------------------------------------------------

 hf stability analysis of h10 triangular lattice, y= 0.3933198989211816
 9
 ----------------------------------------------------------------------
 Symbolic Z-matrix:
 Charge =  0 Multiplicity = 1

                         Standard orientation:
 ---------------------------------------------------------------------
 Center     Atomic      Atomic             Coordinates (Angstroms)
 Number     Number       Type             X           Y           Z
 ---------------------------------------------------------------------
      1          1           0        0.000000    0.786640    1.467890
      2          1           0        0.000000    0.393320    2.935780
      3          1           0        0.000000    0.393320   -0.000000
      4          1           0        0.000000    0.000000    1.467890
      5          1           0       -0.000000   -0.393320    0.000000
      6          1           0       -0.000000   -0.786640   -1.467890
      7          1           0        0.000000   -0.000000   -1.467890
      8          1           0       -0.000000   -0.393320   -2.935780
      9          1           0        0.000000    0.786640   -1.467890
     10          1           0        0.000000    0.393320   -2.935780
     11          1           0       -0.000000   -0.393320    2.935780
     12          1           0       -0.000000   -0.786640    1.467890
 ---------------------------------------------------------------------

 SCF Done:  E(RHF) =  -4.54450617617     A.U. after   13 cycles
 E2 =    -0.3222434593D+00 EUMP2 =    -0.48667496354846D+01

 The electronic state is 1-AG.
 Alpha  occ. eigenvalues --   -0.86277  -0.80806  -0.56665  -0.40579  -0.34851
 Alpha  occ. eigenvalues --    0.07726
 Alpha virt. eigenvalues --   -0.30563  -0.13920   0.29532   0.51911   0.66755
 Alpha virt. eigenvalues --    0.70092

 Mulliken charges:
               1
     1  H   -0.085339
     2  H    0.079789
     3  H   -0.048242
     4  H    0.059341
     5  H   -0.048242
     6  H   -0.085339
     7  H    0.059341
     8  H    0.079789
     9  H   -0.085339
    10  H    0.079789
    11  H    0.079789
    12  H   -0.085339
 Sum of Mulliken charges =  -0.00000

 Dipole moment (field-independent basis, Debye):
    X=              0.0000    Y=              0.0000    Z=             -0.0000  Tot=              0.0000
 Quadrupole moment (field-independent basis, Debye-Ang):
   XX=            -15.1208   YY=            -23.1943   ZZ=             -3.0997
   XY=             -0.0000   XZ=             -0.0000   YZ=              0.0000

 Normal termination of Gaussian 09 at Sat Feb 18 12:41:28 2017.
