 Gaussian 09, Revision E.01,
 Gaussian 09:  ES64L-G09RevE.01 30-Nov-2015

 ----------------------------------------------------------------------
 #rhf/gen scf(symm,tight,novaracc,noincfock,fulldiag) stable(crhf) gues
 s=read geom=nocrowd test
 ----------------------------------------------------------------------

 hf stability analysis of h10 triangular lattice, y= 0.3794068973118231
 4
 ----------------------------------------------------------------------
 Symbolic Z-matrix:
 Charge =  0 Multiplicity = 1

                         Standard orientation:
 ---------------------------------------------------------------------
 Center     Atomic      Atomic             Coordinates (Angstroms)
 Number     Number       Type             X           Y           Z
 ---------------------------------------------------------------------
      1          1           0        0.000000    0.758814    1.521718
      2          1           0        0.000000    0.379407    3.043436
      3          1           0        0.000000    0.379407    0.000000
      4          1           0        0.000000   -0.000000    1.521718
      5          1           0       -0.000000   -0.379407   -0.000000
      6          1           0       -0.000000   -0.758814   -1.521718
      7          1           0        0.000000    0.000000   -1.521718
      8          1           0       -0.000000   -0.379407   -3.043436
      9          1           0        0.000000    0.758814   -1.521718
     10          1           0        0.000000    0.379407   -3.043436
     11          1           0       -0.000000   -0.379407    3.043436
     12          1           0       -0.000000   -0.758814    1.521718
 ---------------------------------------------------------------------

 SCF Done:  E(RHF) =  -4.37230078292     A.U. after   14 cycles
 E2 =    -0.3796826627D+00 EUMP2 =    -0.47519834455890D+01

 The electronic state is 1-AG.
 Alpha  occ. eigenvalues --   -0.85440  -0.80485  -0.56997  -0.38623  -0.33465
 Alpha  occ. eigenvalues --    0.09658
 Alpha virt. eigenvalues --   -0.32626  -0.17862   0.29287   0.50742   0.72872
 Alpha virt. eigenvalues --    0.75709

 Mulliken charges:
               1
     1  H   -0.107695
     2  H    0.094541
     3  H   -0.018890
     4  H    0.045199
     5  H   -0.018890
     6  H   -0.107695
     7  H    0.045199
     8  H    0.094541
     9  H   -0.107695
    10  H    0.094541
    11  H    0.094541
    12  H   -0.107695
 Sum of Mulliken charges =  -0.00000

 Dipole moment (field-independent basis, Debye):
    X=              0.0000    Y=             -0.0000    Z=              0.0000  Tot=              0.0000
 Quadrupole moment (field-independent basis, Debye-Ang):
   XX=            -15.0886   YY=            -23.4685   ZZ=             -0.6636
   XY=             -0.0000   XZ=             -0.0000   YZ=             -0.0000

 Normal termination of Gaussian 09 at Sat Feb 18 12:41:26 2017.
