 Gaussian 09, Revision E.01,
 Gaussian 09:  ES64L-G09RevE.01 30-Nov-2015

 ----------------------------------------------------------------------
 #rhf/gen scf(symm,tight,novaracc,noincfock,fulldiag) stable(crhf) gues
 s=read geom=nocrowd test
 ----------------------------------------------------------------------

 hf stability analysis of h10 triangular lattice, y= 0.7732164846609803
 6
 ----------------------------------------------------------------------
 Symbolic Z-matrix:
 Charge =  0 Multiplicity = 1

                         Standard orientation:
 ---------------------------------------------------------------------
 Center     Atomic      Atomic             Coordinates (Angstroms)
 Number     Number       Type             X           Y           Z
 ---------------------------------------------------------------------
      1          1           0        0.000000    0.746686    1.546433
      2          1           0        0.000000    1.493373    0.773216
      3          1           0        0.000000    0.000000    0.773216
      4          1           0        0.000000    0.746686    0.000000
      5          1           0        0.000000   -0.000000   -0.773216
      6          1           0       -0.000000   -0.746686   -1.546433
      7          1           0       -0.000000   -0.746686    0.000000
      8          1           0       -0.000000   -1.493373   -0.773216
      9          1           0       -0.000000   -0.746686    1.546433
     10          1           0       -0.000000   -1.493373    0.773216
     11          1           0        0.000000    1.493373   -0.773216
     12          1           0        0.000000    0.746686   -1.546433
 ---------------------------------------------------------------------

 SCF Done:  E(RHF) =  -5.45999120483     A.U. after   61 cycles
 E2 =    -0.3150826524D+00 EUMP2 =    -0.57750738572214D+01

 The electronic state is 1-AG.
 Alpha  occ. eigenvalues --   -0.93819  -0.71071  -0.67393  -0.47922  -0.37558
 Alpha  occ. eigenvalues --   -0.11021
 Alpha virt. eigenvalues --   -0.09582   0.13024   0.34017   0.40718   0.43282
 Alpha virt. eigenvalues --    0.88630

 Mulliken charges:
               1
     1  H    0.097237
     2  H   -0.083397
     3  H   -0.145217
     4  H    0.117538
     5  H   -0.145217
     6  H    0.097237
     7  H    0.117538
     8  H   -0.083397
     9  H    0.097237
    10  H   -0.083397
    11  H   -0.083397
    12  H    0.097237
 Sum of Mulliken charges =  -0.00000

 Dipole moment (field-independent basis, Debye):
    X=             -0.0000    Y=             -0.0000    Z=              0.0000  Tot=              0.0000
 Quadrupole moment (field-independent basis, Debye-Ang):
   XX=            -14.7927   YY=            -20.3395   ZZ=            -16.3787
   XY=             -0.0000   XZ=              0.0000   YZ=             -0.0000

 Normal termination of Gaussian 09 at Sat Feb 18 12:42:36 2017.
