 Gaussian 09, Revision E.01,
 Gaussian 09:  ES64L-G09RevE.01 30-Nov-2015

 ----------------------------------------------------------------------
 #rhf/gen scf(symm,tight,novaracc,noincfock,fulldiag) stable(crhf) gues
 s=read geom=nocrowd test
 ----------------------------------------------------------------------

 hf stability analysis of h10 triangular lattice, y= 0.7337491795890599
 4
 ----------------------------------------------------------------------
 Symbolic Z-matrix:
 Charge =  0 Multiplicity = 1

                         Standard orientation:
 ---------------------------------------------------------------------
 Center     Atomic      Atomic             Coordinates (Angstroms)
 Number     Number       Type             X           Y           Z
 ---------------------------------------------------------------------
      1          1           0        0.000000    1.467498    0.786850
      2          1           0        0.000000    0.733749    1.573699
      3          1           0       -0.000000    0.733749    0.000000
      4          1           0        0.000000    0.000000    0.786850
      5          1           0       -0.000000   -0.733749    0.000000
      6          1           0       -0.000000   -1.467498   -0.786850
      7          1           0        0.000000    0.000000   -0.786850
      8          1           0       -0.000000   -0.733749   -1.573699
      9          1           0        0.000000    1.467498   -0.786850
     10          1           0        0.000000    0.733749   -1.573699
     11          1           0       -0.000000   -0.733749    1.573699
     12          1           0       -0.000000   -1.467498    0.786850
 ---------------------------------------------------------------------

 SCF Done:  E(RHF) =  -5.39549218827     A.U. after   16 cycles
 E2 =     0.8371975207D-01 EUMP2 =    -0.53117724361982D+01

 The electronic state is 1-AG.
 Alpha  occ. eigenvalues --   -0.93964  -0.70408  -0.69613  -0.46013  -0.32373
 Alpha  occ. eigenvalues --   -0.12069
 Alpha virt. eigenvalues --   -0.13776   0.13823   0.34483   0.41085   0.42563
 Alpha virt. eigenvalues --    0.86610

 Mulliken charges:
               1
     1  H    0.015449
     2  H    0.027968
     3  H   -0.005862
     4  H   -0.080972
     5  H   -0.005862
     6  H    0.015449
     7  H   -0.080972
     8  H    0.027968
     9  H    0.015449
    10  H    0.027968
    11  H    0.027968
    12  H    0.015449
 Sum of Mulliken charges =  -0.00000

 Dipole moment (field-independent basis, Debye):
    X=             -0.0000    Y=              0.0000    Z=             -0.0000  Tot=              0.0000
 Quadrupole moment (field-independent basis, Debye-Ang):
   XX=            -14.7130   YY=            -20.5198   ZZ=            -15.4808
   XY=             -0.0000   XZ=              0.0000   YZ=             -0.0000

 Normal termination of Gaussian 09 at Sat Feb 18 12:42:29 2017.
