 Gaussian 09, Revision E.01,
 Gaussian 09:  ES64L-G09RevE.01 30-Nov-2015

 ----------------------------------------------------------------------
 #rhf/gen scf(symm,tight,novaracc,noincfock,fulldiag) stable(crhf) gues
 s=read geom=nocrowd test
 ----------------------------------------------------------------------

 ----------------------------------------------------------------------
 hf stability analysis of h10 triangular lattice, y= 1.3330047374615932
 ----------------------------------------------------------------------
 Symbolic Z-matrix:
 Charge =  0 Multiplicity = 1

                         Standard orientation:
 ---------------------------------------------------------------------
 Center     Atomic      Atomic             Coordinates (Angstroms)
 Number     Number       Type             X           Y           Z
 ---------------------------------------------------------------------
      1          1           0       -0.000000    0.433119    2.666009
      2          1           0       -0.000000    0.866239    1.333005
      3          1           0       -0.000000    0.000000    1.333005
      4          1           0        0.000000    0.433119    0.000000
      5          1           0        0.000000    0.000000   -1.333005
      6          1           0       -0.000000   -0.433119   -2.666009
      7          1           0       -0.000000   -0.433119    0.000000
      8          1           0       -0.000000   -0.866239   -1.333005
      9          1           0       -0.000000   -0.433119    2.666009
     10          1           0       -0.000000   -0.866239    1.333005
     11          1           0        0.000000    0.866239   -1.333005
     12          1           0        0.000000    0.433119   -2.666009
 ---------------------------------------------------------------------

 SCF Done:  E(RHF) =  -5.93649466179     A.U. after    9 cycles
 E2 =    -0.1042326098D+00 EUMP2 =    -0.60407272716257D+01

 The electronic state is 1-AG.
 Alpha  occ. eigenvalues --   -0.91994  -0.81988  -0.63397  -0.47518  -0.46013
 Alpha  occ. eigenvalues --   -0.36551
 Alpha virt. eigenvalues --   -0.11364   0.24301   0.40019   0.52921   0.55590
 Alpha virt. eigenvalues --    0.57828

 Mulliken charges:
               1
     1  H    0.026842
     2  H   -0.128388
     3  H    0.004993
     4  H    0.198098
     5  H    0.004993
     6  H    0.026842
     7  H    0.198098
     8  H   -0.128388
     9  H    0.026842
    10  H   -0.128388
    11  H   -0.128388
    12  H    0.026842
 Sum of Mulliken charges =  -0.00000

 Dipole moment (field-independent basis, Debye):
    X=              0.0000    Y=              0.0000    Z=             -0.0000  Tot=              0.0000
 Quadrupole moment (field-independent basis, Debye-Ang):
   XX=            -15.5859   YY=            -19.9368   ZZ=            -18.7977
   XY=             -0.0000   XZ=              0.0000   YZ=             -0.0000

 Normal termination of Gaussian 09 at Sat Feb 18 12:43:36 2017.
