 Gaussian 09, Revision E.01,
 Gaussian 09:  ES64L-G09RevE.01 30-Nov-2015

 ----------------------------------------------------------------------
 #rhf/gen scf(symm,tight,novaracc,noincfock,fulldiag) stable(crhf) gues
 s=read geom=nocrowd test
 ----------------------------------------------------------------------

 ----------------------------------------------------------------------
 hf stability analysis of h10 triangular lattice, y= 1.0205721581109972
 ----------------------------------------------------------------------
 Symbolic Z-matrix:
 Charge =  0 Multiplicity = 1

                         Standard orientation:
 ---------------------------------------------------------------------
 Center     Atomic      Atomic             Coordinates (Angstroms)
 Number     Number       Type             X           Y           Z
 ---------------------------------------------------------------------
      1          1           0        0.000000    0.565712    2.041144
      2          1           0        0.000000    1.131425    1.020572
      3          1           0        0.000000    0.000000    1.020572
      4          1           0       -0.000000    0.565712    0.000000
      5          1           0        0.000000    0.000000   -1.020572
      6          1           0       -0.000000   -0.565712   -2.041144
      7          1           0       -0.000000   -0.565712   -0.000000
      8          1           0       -0.000000   -1.131425   -1.020572
      9          1           0       -0.000000   -0.565712    2.041144
     10          1           0       -0.000000   -1.131425    1.020572
     11          1           0        0.000000    1.131425   -1.020572
     12          1           0        0.000000    0.565712   -2.041144
 ---------------------------------------------------------------------

 SCF Done:  E(RHF) =  -5.90369631613     A.U. after    8 cycles
 E2 =    -0.1210292038D+00 EUMP2 =    -0.60247255199553D+01

 The electronic state is 1-AG.
 Alpha  occ. eigenvalues --   -0.96256  -0.80028  -0.59718  -0.54738  -0.42591
 Alpha  occ. eigenvalues --   -0.26680
 Alpha virt. eigenvalues --    0.13248   0.14508   0.28845   0.37956   0.40547
 Alpha virt. eigenvalues --    0.63418

 Mulliken charges:
               1
     1  H   -0.059204
     2  H    0.012185
     3  H    0.024320
     4  H    0.069716
     5  H    0.024320
     6  H   -0.059204
     7  H    0.069716
     8  H    0.012185
     9  H   -0.059204
    10  H    0.012185
    11  H    0.012185
    12  H   -0.059204
 Sum of Mulliken charges =  -0.00000

 Dipole moment (field-independent basis, Debye):
    X=             -0.0000    Y=              0.0000    Z=              0.0000  Tot=              0.0000
 Quadrupole moment (field-independent basis, Debye-Ang):
   XX=            -15.2694   YY=            -16.1673   ZZ=            -25.4582
   XY=             -0.0000   XZ=              0.0000   YZ=              0.0000

 Normal termination of Gaussian 09 at Sat Feb 18 12:43:11 2017.
