 Gaussian 09, Revision E.01,
 Gaussian 09:  ES64L-G09RevE.01 30-Nov-2015

 ----------------------------------------------------------------------
 #rhf/gen scf(symm,tight,novaracc,noincfock,fulldiag) stable(crhf) gues
 s=read geom=nocrowd test
 ----------------------------------------------------------------------

 hf stability analysis of h10 triangular lattice, y= 0.9251794552834028
 4
 ----------------------------------------------------------------------
 Symbolic Z-matrix:
 Charge =  0 Multiplicity = 1

                         Standard orientation:
 ---------------------------------------------------------------------
 Center     Atomic      Atomic             Coordinates (Angstroms)
 Number     Number       Type             X           Y           Z
 ---------------------------------------------------------------------
      1          1           0        0.000000    0.624041    1.850359
      2          1           0        0.000000    1.248083    0.925179
      3          1           0        0.000000    0.000000    0.925179
      4          1           0       -0.000000    0.624041    0.000000
      5          1           0        0.000000   -0.000000   -0.925179
      6          1           0       -0.000000   -0.624041   -1.850359
      7          1           0       -0.000000   -0.624041    0.000000
      8          1           0       -0.000000   -1.248083   -0.925179
      9          1           0       -0.000000   -0.624041    1.850359
     10          1           0       -0.000000   -1.248083    0.925179
     11          1           0        0.000000    1.248083   -0.925179
     12          1           0        0.000000    0.624041   -1.850359
 ---------------------------------------------------------------------

 SCF Done:  E(RHF) =  -5.69566344919     A.U. after   10 cycles
 E2 =    -0.1381563584D+00 EUMP2 =    -0.58338198075668D+01

 The electronic state is 1-AG.
 Alpha  occ. eigenvalues --   -0.97196  -0.78009  -0.64244  -0.50195  -0.43872
 Alpha  occ. eigenvalues --   -0.16632
 Alpha virt. eigenvalues --    0.04181   0.12503   0.21634   0.41454   0.56594
 Alpha virt. eigenvalues --    0.59052

 Mulliken charges:
               1
     1  H   -0.093865
     2  H    0.051505
     3  H    0.070915
     4  H    0.013806
     5  H    0.070915
     6  H   -0.093865
     7  H    0.013806
     8  H    0.051505
     9  H   -0.093865
    10  H    0.051505
    11  H    0.051505
    12  H   -0.093865
 Sum of Mulliken charges =  -0.00000

 Dipole moment (field-independent basis, Debye):
    X=             -0.0000    Y=             -0.0000    Z=              0.0000  Tot=              0.0000
 Quadrupole moment (field-independent basis, Debye-Ang):
   XX=            -15.0920   YY=            -14.6236   ZZ=            -26.8773
   XY=              0.0000   XZ=              0.0000   YZ=              0.0000

 Normal termination of Gaussian 09 at Sat Feb 18 12:43:00 2017.
