 Gaussian 09, Revision E.01,
 Gaussian 09:  ES64L-G09RevE.01 30-Nov-2015

 ----------------------------------------------------------------------
 #uhf/gen scf(tight,novaracc,noincfock,fulldiag, ) stable(crhf) guess=m
 ix geom=nocrowd test
 ----------------------------------------------------------------------

 hf stability analysis of h10 triangular lattice, y= 0.4707695940863088
 6 alpha= 21.000000000000000
 ----------------------------------------------------------------------
 Symbolic Z-matrix:
 Charge =  0 Multiplicity = 3

                         Standard orientation:
 ---------------------------------------------------------------------
 Center     Atomic      Atomic             Coordinates (Angstroms)
 Number     Number       Type             X           Y           Z
 ---------------------------------------------------------------------
      1          1           0        1.758005   -1.295638    0.000000
      2          1           0        1.758005   -2.609287    0.000000
      3          1           0        0.879003   -0.319407    0.000000
      4          1           0        0.879003   -1.633056    0.000000
      5          1           0        0.000000    0.656824    0.000000
      6          1           0       -0.000000   -0.656824    0.000000
      7          1           0       -0.879003    1.633056   -0.000000
      8          1           0       -0.879003    0.319407   -0.000000
      9          1           0       -1.758005    2.609287   -0.000000
     10          1           0       -1.758005    1.295638   -0.000000
 ---------------------------------------------------------------------

 SCF Done:  E(UHF) =  -4.88403512159     A.U. after   20 cycles
 E2 =    -0.4084533215D-01 EUMP2 =    -0.49248804537406D+01

 The electronic state is 3-BU.
 Alpha  occ. eigenvalues --   -0.83294  -0.74656  -0.62622  -0.45385  -0.32165
 Alpha  occ. eigenvalues --   -0.31653
 Alpha virt. eigenvalues --    0.16748   0.18669   0.35078   0.57943
  Beta  occ. eigenvalues --   -0.80175  -0.71424  -0.53686  -0.36464
  Beta virt. eigenvalues --    0.09212   0.18214   0.21631   0.27495   0.43754
  Beta virt. eigenvalues --    0.60090

 Mulliken charges and spin densities:
               1          2
     1  H   -0.009256   0.448966
     2  H   -0.084868   0.773500
     3  H    0.010314  -0.508581
     4  H    0.113974  -0.307156
     5  H   -0.030163   0.593271
     6  H   -0.030163   0.593271
     7  H    0.113974  -0.307156
     8  H    0.010314  -0.508581
     9  H   -0.084868   0.773500
    10  H   -0.009256   0.448966
 Sum of Mulliken charges =  -0.00000   2.00000

 Dipole moment (field-independent basis, Debye):
    X=             -0.0000    Y=             -0.0000    Z=              0.0000  Tot=              0.0000
 Quadrupole moment (field-independent basis, Debye-Ang):
   XX=            -15.6240   YY=            -19.2297   ZZ=            -12.7658
   XY=              4.0230   XZ=             -0.0000   YZ=              0.0000

 Normal termination of Gaussian 09 at Thu Feb 23 12:59:57 2017.
