 Gaussian 09, Revision E.01,
 Gaussian 09:  ES64L-G09RevE.01 30-Nov-2015

 ----------------------------------------------------------------------
 #uhf/gen scf(tight,novaracc,noincfock,fulldiag, ) stable(crhf) guess=m
 ix geom=nocrowd test
 ----------------------------------------------------------------------

 hf stability analysis of h10 triangular lattice, y= 1.0311871763068714
  alpha= 61.500000000000000
 ----------------------------------------------------------------------
 Symbolic Z-matrix:
 Charge =  0 Multiplicity = 3

                         Standard orientation:
 ---------------------------------------------------------------------
 Center     Atomic      Atomic             Coordinates (Angstroms)
 Number     Number       Type             X           Y           Z
 ---------------------------------------------------------------------
      1          1           0        1.968160    1.864828    0.000000
      2          1           0        1.968160    0.691448    0.000000
      3          1           0        0.984080    1.225759    0.000000
      4          1           0        0.984080    0.052379    0.000000
      5          1           0        0.000000    0.586690    0.000000
      6          1           0       -0.000000   -0.586690   -0.000000
      7          1           0       -0.984080   -0.052379    0.000000
      8          1           0       -0.984080   -1.225759   -0.000000
      9          1           0       -1.968160   -0.691448    0.000000
     10          1           0       -1.968160   -1.864828   -0.000000
 ---------------------------------------------------------------------

 SCF Done:  E(UHF) =  -4.86246002027     A.U. after   22 cycles
 E2 =    -0.6878317700D-01 EUMP2 =    -0.49312431972693D+01

 The electronic state is 3-BU.
 Alpha  occ. eigenvalues --   -0.88234  -0.78520  -0.60982  -0.41534  -0.37610
 Alpha  occ. eigenvalues --   -0.30477
 Alpha virt. eigenvalues --    0.16485   0.17154   0.47810   0.52035
  Beta  occ. eigenvalues --   -0.82252  -0.69495  -0.49782  -0.33452
  Beta virt. eigenvalues --    0.00639   0.07978   0.26276   0.30874   0.55480
  Beta virt. eigenvalues --    0.58948

 Mulliken charges and spin densities:
               1          2
     1  H   -0.057512   0.432362
     2  H    0.064821   0.444176
     3  H    0.077906  -0.034672
     4  H   -0.116236  -0.161875
     5  H    0.031021   0.320008
     6  H    0.031021   0.320008
     7  H   -0.116236  -0.161875
     8  H    0.077906  -0.034672
     9  H    0.064821   0.444176
    10  H   -0.057512   0.432362
 Sum of Mulliken charges =   0.00000   2.00000

 Dipole moment (field-independent basis, Debye):
    X=             -0.0000    Y=              0.0000    Z=             -0.0000  Tot=              0.0000
 Quadrupole moment (field-independent basis, Debye-Ang):
   XX=            -14.4571   YY=            -16.1641   ZZ=            -12.9432
   XY=             -0.1841   XZ=              0.0000   YZ=             -0.0000

 Normal termination of Gaussian 09 at Thu Feb 23 13:09:23 2017.
