 Gaussian 09, Revision E.01,
 Gaussian 09:  ES64L-G09RevE.01 30-Nov-2015

 ----------------------------------------------------------------------
 #uhf/gen scf(tight,novaracc,noincfock,fulldiag, ) stable(crhf) guess=m
 ix geom=nocrowd test
 ----------------------------------------------------------------------

 hf stability analysis of h10 triangular lattice, y= 0.4363273688766223
 2 alpha= 18.250000000000000
 ----------------------------------------------------------------------
 Symbolic Z-matrix:
 Charge =  0 Multiplicity = 3

                         Standard orientation:
 ---------------------------------------------------------------------
 Center     Atomic      Atomic             Coordinates (Angstroms)
 Number     Number       Type             X           Y           Z
 ---------------------------------------------------------------------
      1          1           0        1.657519   -1.543364    0.000000
      2          1           0        1.657519   -2.936652    0.000000
      3          1           0        0.828759   -0.423360    0.000000
      4          1           0        0.828759   -1.816648    0.000000
      5          1           0       -0.000000    0.696644    0.000000
      6          1           0       -0.000000   -0.696644   -0.000000
      7          1           0       -0.828759    1.816648    0.000000
      8          1           0       -0.828759    0.423360    0.000000
      9          1           0       -1.657519    2.936652    0.000000
     10          1           0       -1.657519    1.543364    0.000000
 ---------------------------------------------------------------------

 SCF Done:  E(UHF) =  -4.86268766516     A.U. after   25 cycles
 E2 =    -0.6609545552D-01 EUMP2 =    -0.49287831206847D+01

 Unable to determine electronic state:  partially filled degenerate orbitals.
 Alpha  occ. eigenvalues --   -0.83085  -0.74359  -0.62408  -0.46454  -0.31212
 Alpha  occ. eigenvalues --   -0.22126
 Alpha virt. eigenvalues --    0.10436   0.18376   0.36198   0.56268
  Beta  occ. eigenvalues --   -0.74106  -0.67786  -0.53375  -0.36390
  Beta virt. eigenvalues --    0.04684   0.15552   0.24357   0.26607   0.46844
  Beta virt. eigenvalues --    0.67107

 Mulliken charges and spin densities:
               1          2
     1  H    0.049060   0.419151
     2  H    0.004725  -0.496241
     3  H   -0.069508   0.290735
     4  H    0.065996   0.158091
     5  H   -0.044484   0.239742
     6  H   -0.033182   0.450274
     7  H    0.083345  -0.159392
     8  H    0.040272  -0.059475
     9  H   -0.063939   0.912968
    10  H   -0.032285   0.244146
 Sum of Mulliken charges =  -0.00000   2.00000

 Dipole moment (field-independent basis, Debye):
    X=              0.6882    Y=             -1.2347    Z=             -0.0000  Tot=              1.4136
 Quadrupole moment (field-independent basis, Debye-Ang):
   XX=            -13.7868   YY=            -16.3436   ZZ=            -12.8587
   XY=              1.7606   XZ=              0.0000   YZ=             -0.0000

 Normal termination of Gaussian 09 at Thu Feb 23 12:59:19 2017.
