 Gaussian 09, Revision E.01,
 Gaussian 09:  ES64L-G09RevE.01 30-Nov-2015

 ----------------------------------------------------------------------
 #uhf/gen scf(tight,novaracc,noincfock,fulldiag, ) stable(crhf) guess=m
 ix geom=nocrowd test
 ----------------------------------------------------------------------

 hf stability analysis of h10 triangular lattice, y= 1.0000000336490449
  alpha= 60.000000000000000
 ----------------------------------------------------------------------
 Symbolic Z-matrix:
 Charge =  0 Multiplicity = 3

                         Standard orientation:
 ---------------------------------------------------------------------
 Center     Atomic      Atomic             Coordinates (Angstroms)
 Number     Number       Type             X           Y           Z
 ---------------------------------------------------------------------
      1          1           0        2.000000    1.732051    0.000000
      2          1           0        2.000000    0.577350    0.000000
      3          1           0        1.000000    1.154701    0.000000
      4          1           0        1.000000    0.000000    0.000000
      5          1           0        0.000000    0.577350    0.000000
      6          1           0       -0.000000   -0.577350    0.000000
      7          1           0       -1.000000    0.000000    0.000000
      8          1           0       -1.000000   -1.154701    0.000000
      9          1           0       -2.000000   -0.577350    0.000000
     10          1           0       -2.000000   -1.732051    0.000000
 ---------------------------------------------------------------------

 SCF Done:  E(UHF) =  -4.87220368858     A.U. after   22 cycles
 E2 =    -0.7374857017D-01 EUMP2 =    -0.49459522587537D+01

 The electronic state is 3-BU.
 Alpha  occ. eigenvalues --   -0.88068  -0.79134  -0.60342  -0.42264  -0.37335
 Alpha  occ. eigenvalues --   -0.31436
 Alpha virt. eigenvalues --    0.16719   0.17638   0.51216   0.53764
  Beta  occ. eigenvalues --   -0.82554  -0.68441  -0.48865  -0.34081
  Beta virt. eigenvalues --    0.00174   0.06193   0.28815   0.29577   0.59323
  Beta virt. eigenvalues --    0.60784

 Mulliken charges and spin densities:
               1          2
     1  H   -0.013812   0.466810
     2  H    0.044983   0.380086
     3  H    0.047632   0.031085
     4  H   -0.070395  -0.009934
     5  H   -0.008408   0.131953
     6  H   -0.008408   0.131953
     7  H   -0.070395  -0.009934
     8  H    0.047632   0.031085
     9  H    0.044983   0.380086
    10  H   -0.013812   0.466810
 Sum of Mulliken charges =  -0.00000   2.00000

 Dipole moment (field-independent basis, Debye):
    X=              0.0000    Y=             -0.0000    Z=              0.0000  Tot=              0.0000
 Quadrupole moment (field-independent basis, Debye-Ang):
   XX=            -13.4527   YY=            -15.3808   ZZ=            -12.9596
   XY=              1.0408   XZ=             -0.0000   YZ=              0.0000

 Normal termination of Gaussian 09 at Thu Feb 23 13:09:02 2017.
