 Gaussian 09, Revision E.01,
 Gaussian 09:  ES64L-G09RevE.01 30-Nov-2015

 ----------------------------------------------------------------------
 #uhf/gen scf(tight,novaracc,noincfock,fulldiag, ) stable(crhf) guess=m
 ix geom=nocrowd test
 ----------------------------------------------------------------------

 hf stability analysis of h10 triangular lattice, y= 0.6476646814092581
 5 alpha= 36.000000000000000
 ----------------------------------------------------------------------
 Symbolic Z-matrix:
 Charge =  0 Multiplicity = 3

                         Standard orientation:
 ---------------------------------------------------------------------
 Center     Atomic      Atomic             Coordinates (Angstroms)
 Number     Number       Type             X           Y           Z
 ---------------------------------------------------------------------
      1          1           0        2.095887   -0.130058    0.000000
      2          1           0        2.095887   -1.231931    0.000000
      3          1           0        1.047943    0.210439    0.000000
      4          1           0        1.047943   -0.891434    0.000000
      5          1           0       -0.000000    0.550936    0.000000
      6          1           0       -0.000000   -0.550936    0.000000
      7          1           0       -1.047943    0.891434    0.000000
      8          1           0       -1.047943   -0.210439    0.000000
      9          1           0       -2.095887    1.231931    0.000000
     10          1           0       -2.095887    0.130058    0.000000
 ---------------------------------------------------------------------

 SCF Done:  E(UHF) =  -4.91114136628     A.U. after   22 cycles
 E2 =    -0.7422300019D-01 EUMP2 =    -0.49853643664721D+01

 The electronic state is 3-BU.
 Alpha  occ. eigenvalues --   -0.89490  -0.80872  -0.58551  -0.46779  -0.35640
 Alpha  occ. eigenvalues --   -0.34803
 Alpha virt. eigenvalues --    0.15807   0.24784   0.47317   0.73963
  Beta  occ. eigenvalues --   -0.83621  -0.66932  -0.49033  -0.38185
  Beta virt. eigenvalues --    0.02649   0.03718   0.25310   0.36386   0.59409
  Beta virt. eigenvalues --    0.80569

 Mulliken charges and spin densities:
               1          2
     1  H    0.020863   0.223153
     2  H    0.025638   0.419364
     3  H   -0.012265   0.320836
     4  H   -0.000328   0.250902
     5  H   -0.033908  -0.214256
     6  H   -0.033908  -0.214256
     7  H   -0.000328   0.250902
     8  H   -0.012265   0.320836
     9  H    0.025638   0.419364
    10  H    0.020863   0.223153
 Sum of Mulliken charges =  -0.00000   2.00000

 Dipole moment (field-independent basis, Debye):
    X=              0.0000    Y=              0.0000    Z=              0.0000  Tot=              0.0000
 Quadrupole moment (field-independent basis, Debye-Ang):
   XX=            -13.0146   YY=            -15.1797   ZZ=            -12.9009
   XY=             -1.0403   XZ=              0.0000   YZ=              0.0000

 Normal termination of Gaussian 09 at Thu Feb 23 13:03:28 2017.
