 Gaussian 09, Revision E.01,
 Gaussian 09:  ES64L-G09RevE.01 30-Nov-2015

 ----------------------------------------------------------------------
 #uhf/gen scf(tight,novaracc,noincfock,fulldiag, ) stable(crhf) guess=m
 ix geom=nocrowd test
 ----------------------------------------------------------------------

 hf stability analysis of h10 triangular lattice, y= 0.3933198989211816
 9 alpha= 15.000000000000000
 ----------------------------------------------------------------------
 Symbolic Z-matrix:
 Charge =  0 Multiplicity = 3

                         Standard orientation:
 ---------------------------------------------------------------------
 Center     Atomic      Atomic             Coordinates (Angstroms)
 Number     Number       Type             X           Y           Z
 ---------------------------------------------------------------------
      1          1           0        1.519671   -1.872312    0.000000
      2          1           0        1.519671   -3.391984    0.000000
      3          1           0        0.759836   -0.556238    0.000000
      4          1           0        0.759836   -2.075910    0.000000
      5          1           0       -0.000000    0.759836    0.000000
      6          1           0       -0.000000   -0.759836   -0.000000
      7          1           0       -0.759836    2.075910    0.000000
      8          1           0       -0.759836    0.556238    0.000000
      9          1           0       -1.519671    3.391984    0.000000
     10          1           0       -1.519671    1.872312    0.000000
 ---------------------------------------------------------------------

 SCF Done:  E(UHF) =  -5.11131208835     A.U. after   17 cycles
 E2 =    -0.5203438019D-01 EUMP2 =    -0.51633464685397D+01

 The electronic state is 3-BU.
 Alpha  occ. eigenvalues --   -0.76390  -0.71341  -0.62608  -0.51349  -0.40485
 Alpha  occ. eigenvalues --   -0.35591
 Alpha virt. eigenvalues --    0.19602   0.30158   0.46598   0.63521
  Beta  occ. eigenvalues --   -0.75261  -0.68320  -0.57068  -0.43437
  Beta virt. eigenvalues --    0.19031   0.19388   0.21508   0.31226   0.47911
  Beta virt. eigenvalues --    0.64298

 Mulliken charges and spin densities:
               1          2
     1  H   -0.008499   0.042518
     2  H   -0.031133   0.966975
     3  H    0.005536  -0.025822
     4  H    0.030369  -0.018466
     5  H    0.003726   0.034794
     6  H    0.003726   0.034794
     7  H    0.030369  -0.018466
     8  H    0.005536  -0.025822
     9  H   -0.031133   0.966975
    10  H   -0.008499   0.042518
 Sum of Mulliken charges =  -0.00000   2.00000

 Dipole moment (field-independent basis, Debye):
    X=              0.0000    Y=             -0.0000    Z=             -0.0000  Tot=              0.0000
 Quadrupole moment (field-independent basis, Debye-Ang):
   XX=            -12.9359   YY=            -20.2727   ZZ=            -12.7234
   XY=              4.2925   XZ=              0.0000   YZ=             -0.0000

 Normal termination of Gaussian 09 at Thu Feb 23 12:58:34 2017.
