 Gaussian 09, Revision E.01,
 Gaussian 09:  ES64L-G09RevE.01 30-Nov-2015

 ----------------------------------------------------------------------
 #uhf/gen scf(tight,novaracc,noincfock,fulldiag, ) stable(crhf) guess=m
 ix geom=nocrowd test
 ----------------------------------------------------------------------

 hf stability analysis of h10 triangular lattice, y= 1.1190932273249123
  alpha= 65.250000000000000
 ----------------------------------------------------------------------
 Symbolic Z-matrix:
 Charge =  0 Multiplicity = 3

                         Standard orientation:
 ---------------------------------------------------------------------
 Center     Atomic      Atomic             Coordinates (Angstroms)
 Number     Number       Type             X           Y           Z
 ---------------------------------------------------------------------
      1          1           0        1.874077    2.216757    0.000000
      2          1           0        1.874077    0.984469    0.000000
      3          1           0        0.937039    1.416450    0.000000
      4          1           0        0.937039    0.184163    0.000000
      5          1           0       -0.000000    0.616144    0.000000
      6          1           0       -0.000000   -0.616144    0.000000
      7          1           0       -0.937039   -0.184163    0.000000
      8          1           0       -0.937039   -1.416450    0.000000
      9          1           0       -1.874077   -0.984469    0.000000
     10          1           0       -1.874077   -2.216757    0.000000
 ---------------------------------------------------------------------

 SCF Done:  E(UHF) =  -4.85369559520     A.U. after   18 cycles
 E2 =    -0.5576036914D-01 EUMP2 =    -0.49094559643447D+01

 The electronic state is 3-BU.
 Alpha  occ. eigenvalues --   -0.86834  -0.76905  -0.62005  -0.41149  -0.37024
 Alpha  occ. eigenvalues --   -0.29214
 Alpha virt. eigenvalues --    0.15309   0.18666   0.36976   0.54199
  Beta  occ. eigenvalues --   -0.81439  -0.71226  -0.51766  -0.33538
  Beta virt. eigenvalues --    0.03979   0.12851   0.22025   0.31388   0.45383
  Beta virt. eigenvalues --    0.59105

 Mulliken charges and spin densities:
               1          2
     1  H   -0.100216   0.539693
     2  H    0.044174   0.485114
     3  H    0.123039  -0.202703
     4  H   -0.083824  -0.353381
     5  H    0.016827   0.531277
     6  H    0.016827   0.531277
     7  H   -0.083824  -0.353381
     8  H    0.123039  -0.202703
     9  H    0.044174   0.485114
    10  H   -0.100216   0.539693
 Sum of Mulliken charges =  -0.00000   2.00000

 Dipole moment (field-independent basis, Debye):
    X=             -0.0000    Y=             -0.0000    Z=             -0.0000  Tot=              0.0000
 Quadrupole moment (field-independent basis, Debye-Ang):
   XX=            -15.7833   YY=            -17.7865   ZZ=            -12.8859
   XY=             -2.4254   XZ=             -0.0000   YZ=              0.0000

 Normal termination of Gaussian 09 at Thu Feb 23 13:10:14 2017.
