 Gaussian 09, Revision E.01,
 Gaussian 09:  ES64L-G09RevE.01 30-Nov-2015

 ----------------------------------------------------------------------
 #uhf/gen scf(tight,novaracc,noincfock,fulldiag, ) stable(crhf) guess=m
 ix geom=nocrowd test
 ----------------------------------------------------------------------

 hf stability analysis of h10 triangular lattice, y= 1.5360456330340897
  alpha= 76.250000000000000
 ----------------------------------------------------------------------
 Symbolic Z-matrix:
 Charge =  0 Multiplicity = 3

                         Standard orientation:
 ---------------------------------------------------------------------
 Center     Atomic      Atomic             Coordinates (Angstroms)
 Number     Number       Type             X           Y           Z
 ---------------------------------------------------------------------
      1          1           0        1.460385    3.596057   -0.000000
      2          1           0        1.460385    2.014692   -0.000000
      3          1           0        0.730193    2.193369   -0.000000
      4          1           0        0.730193    0.612005   -0.000000
      5          1           0        0.000000    0.790682   -0.000000
      6          1           0       -0.000000   -0.790682   -0.000000
      7          1           0       -0.730193   -0.612005   -0.000000
      8          1           0       -0.730193   -2.193369   -0.000000
      9          1           0       -1.460385   -2.014692   -0.000000
     10          1           0       -1.460385   -3.596057   -0.000000
 ---------------------------------------------------------------------

 SCF Done:  E(UHF) =  -5.15757746497     A.U. after   17 cycles
 E2 =    -0.4841864756D-01 EUMP2 =    -0.52059961125307D+01

 The electronic state is 3-BU.
 Alpha  occ. eigenvalues --   -0.75520  -0.70979  -0.62985  -0.52606  -0.42403
 Alpha  occ. eigenvalues --   -0.38914
 Alpha virt. eigenvalues --    0.22993   0.33004   0.48657   0.64650
  Beta  occ. eigenvalues --   -0.74572  -0.68355  -0.58386  -0.46559
  Beta virt. eigenvalues --    0.18335   0.18768   0.23577   0.33862   0.49606
  Beta virt. eigenvalues --    0.65191

 Mulliken charges and spin densities:
               1          2
     1  H   -0.017539   0.981600
     2  H   -0.005850   0.020349
     3  H    0.017906  -0.007358
     4  H    0.002183  -0.009907
     5  H    0.003301   0.015317
     6  H    0.003301   0.015317
     7  H    0.002183  -0.009907
     8  H    0.017906  -0.007358
     9  H   -0.005850   0.020349
    10  H   -0.017539   0.981600
 Sum of Mulliken charges =   0.00000   2.00000

 Dipole moment (field-independent basis, Debye):
    X=              0.0000    Y=              0.0000    Z=              0.0000  Tot=              0.0000
 Quadrupole moment (field-independent basis, Debye-Ang):
   XX=            -12.5204   YY=            -19.3629   ZZ=            -12.8015
   XY=             -3.4013   XZ=             -0.0000   YZ=             -0.0000

 Normal termination of Gaussian 09 at Thu Feb 23 13:12:36 2017.
