 Gaussian 09, Revision E.01,
 Gaussian 09:  ES64L-G09RevE.01 30-Nov-2015

 ----------------------------------------------------------------------
 #uhf/gen scf(tight,novaracc,noincfock,fulldiag, ) stable(crhf) guess=m
 ix geom=nocrowd test
 ----------------------------------------------------------------------

 hf stability analysis of h10 triangular lattice, y= 0.7147002101552084
 6 alpha= 41.500000000000000
 ----------------------------------------------------------------------
 Symbolic Z-matrix:
 Charge =  0 Multiplicity = 3

                         Standard orientation:
 ---------------------------------------------------------------------
 Center     Atomic      Atomic             Coordinates (Angstroms)
 Number     Number       Type             X           Y           Z
 ---------------------------------------------------------------------
      1          1           0        2.141115    0.276403    0.000000
      2          1           0        2.141115   -0.802195    0.000000
      3          1           0        1.070558    0.407851    0.000000
      4          1           0        1.070558   -0.670747    0.000000
      5          1           0       -0.000000    0.539299    0.000000
      6          1           0       -0.000000   -0.539299    0.000000
      7          1           0       -1.070558    0.670747    0.000000
      8          1           0       -1.070558   -0.407851    0.000000
      9          1           0       -2.141115    0.802195    0.000000
     10          1           0       -2.141115   -0.276403    0.000000
 ---------------------------------------------------------------------

 SCF Done:  E(UHF) =  -4.92341765271     A.U. after   22 cycles
 E2 =    -0.7233646529D-01 EUMP2 =    -0.49957541180050D+01

 The electronic state is 3-BU.
 Alpha  occ. eigenvalues --   -0.90356  -0.81542  -0.57868  -0.48614  -0.36843
 Alpha  occ. eigenvalues --   -0.34848
 Alpha virt. eigenvalues --    0.14805   0.30149   0.44451   0.85983
  Beta  occ. eigenvalues --   -0.84407  -0.66516  -0.49238  -0.40489
  Beta virt. eigenvalues --    0.02870   0.04586   0.23228   0.39986   0.59314
  Beta virt. eigenvalues --    0.92499

 Mulliken charges and spin densities:
               1          2
     1  H    0.026490   0.245019
     2  H    0.023554   0.345409
     3  H   -0.023773   0.368261
     4  H   -0.019009   0.336591
     5  H   -0.007262  -0.295280
     6  H   -0.007262  -0.295280
     7  H   -0.019009   0.336591
     8  H   -0.023773   0.368261
     9  H    0.023554   0.345409
    10  H    0.026490   0.245019
 Sum of Mulliken charges =   0.00000   2.00000

 Dipole moment (field-independent basis, Debye):
    X=              0.0000    Y=             -0.0000    Z=              0.0000  Tot=              0.0000
 Quadrupole moment (field-independent basis, Debye-Ang):
   XX=            -13.2978   YY=            -15.3207   ZZ=            -12.8574
   XY=             -0.2981   XZ=              0.0000   YZ=              0.0000

 Normal termination of Gaussian 09 at Thu Feb 23 13:04:45 2017.
