 Gaussian 09, Revision E.01,
 Gaussian 09:  ES64L-G09RevE.01 30-Nov-2015

 ----------------------------------------------------------------------
 #uhf/gen scf(tight,novaracc,noincfock,fulldiag, ) stable(crhf) guess=m
 ix geom=nocrowd test
 ----------------------------------------------------------------------

 hf stability analysis of h10 triangular lattice, y= 0.4234052775129074
 1 alpha= 17.250000000000000
 ----------------------------------------------------------------------
 Symbolic Z-matrix:
 Charge =  0 Multiplicity = 3

                         Standard orientation:
 ---------------------------------------------------------------------
 Center     Atomic      Atomic             Coordinates (Angstroms)
 Number     Number       Type             X           Y           Z
 ---------------------------------------------------------------------
      1          1           0        1.617442   -1.639487   -0.000000
      2          1           0        1.617442   -3.067298   -0.000000
      3          1           0        0.808721   -0.462791   -0.000000
      4          1           0        0.808721   -1.890602   -0.000000
      5          1           0        0.000000    0.713905    0.000000
      6          1           0       -0.000000   -0.713905    0.000000
      7          1           0       -0.808721    1.890602   -0.000000
      8          1           0       -0.808721    0.462791   -0.000000
      9          1           0       -1.617442    3.067298   -0.000000
     10          1           0       -1.617442    1.639487   -0.000000
 ---------------------------------------------------------------------

 SCF Done:  E(UHF) =  -5.00462797034     A.U. after   22 cycles
 E2 =    -0.5375557409D-01 EUMP2 =    -0.50583835444333D+01

 The electronic state is 3-BU.
 Alpha  occ. eigenvalues --   -0.78482  -0.72237  -0.62382  -0.49279  -0.37067
 Alpha  occ. eigenvalues --   -0.30319
 Alpha virt. eigenvalues --    0.14768   0.25707   0.42250   0.61200
  Beta  occ. eigenvalues --   -0.76995  -0.69003  -0.55143  -0.39025
  Beta virt. eigenvalues --    0.14697   0.20936   0.23453   0.26527   0.45678
  Beta virt. eigenvalues --    0.62406

 Mulliken charges and spin densities:
               1          2
     1  H   -0.023776   0.191790
     2  H   -0.061797   0.923709
     3  H    0.027842  -0.234005
     4  H    0.068303  -0.133870
     5  H   -0.010571   0.252376
     6  H   -0.010571   0.252376
     7  H    0.068303  -0.133870
     8  H    0.027842  -0.234005
     9  H   -0.061797   0.923709
    10  H   -0.023776   0.191790
 Sum of Mulliken charges =   0.00000   2.00000

 Dipole moment (field-independent basis, Debye):
    X=             -0.0000    Y=             -0.0000    Z=              0.0000  Tot=              0.0000
 Quadrupole moment (field-independent basis, Debye-Ang):
   XX=            -14.2019   YY=            -21.4222   ZZ=            -12.6340
   XY=              5.7616   XZ=             -0.0000   YZ=              0.0000

 Normal termination of Gaussian 09 at Thu Feb 23 12:59:05 2017.
