 Gaussian 09, Revision E.01,
 Gaussian 09:  ES64L-G09RevE.01 30-Nov-2015

 ----------------------------------------------------------------------
 #uhf/gen scf(tight,novaracc,noincfock,fulldiag, ) stable(crhf) guess=m
 ix geom=nocrowd test
 ----------------------------------------------------------------------

 hf stability analysis of h10 triangular lattice, y= 0.8368882343931486
 3 alpha= 50.500000000000000
 ----------------------------------------------------------------------
 Symbolic Z-matrix:
 Charge =  0 Multiplicity = 3

                         Standard orientation:
 ---------------------------------------------------------------------
 Center     Atomic      Atomic             Coordinates (Angstroms)
 Number     Number       Type             X           Y           Z
 ---------------------------------------------------------------------
      1          1           0        2.129305    0.956185   -0.000000
      2          1           0        2.129305   -0.128395   -0.000000
      3          1           0        1.064653    0.749237   -0.000000
      4          1           0        1.064653   -0.335342   -0.000000
      5          1           0        0.000000    0.542290   -0.000000
      6          1           0       -0.000000   -0.542290   -0.000000
      7          1           0       -1.064653    0.335342   -0.000000
      8          1           0       -1.064653   -0.749237   -0.000000
      9          1           0       -2.129305    0.128395   -0.000000
     10          1           0       -2.129305   -0.956185   -0.000000
 ---------------------------------------------------------------------

 SCF Done:  E(UHF) =  -4.92075522242     A.U. after   22 cycles
 E2 =    -0.7282889723D-01 EUMP2 =    -0.49935841196458D+01

 The electronic state is 3-BU.
 Alpha  occ. eigenvalues --   -0.90135  -0.81371  -0.58064  -0.48148  -0.36288
 Alpha  occ. eigenvalues --   -0.35081
 Alpha virt. eigenvalues --    0.15104   0.28534   0.45375   0.82588
  Beta  occ. eigenvalues --   -0.84195  -0.66641  -0.49184  -0.39880
  Beta virt. eigenvalues --    0.03065   0.04041   0.23793   0.39053   0.59294
  Beta virt. eigenvalues --    0.89158

 Mulliken charges and spin densities:
               1          2
     1  H    0.023396   0.374372
     2  H    0.025543   0.228306
     3  H   -0.013197   0.311615
     4  H   -0.020316   0.359576
     5  H   -0.015426  -0.273869
     6  H   -0.015426  -0.273869
     7  H   -0.020316   0.359576
     8  H   -0.013197   0.311615
     9  H    0.025543   0.228306
    10  H    0.023396   0.374372
 Sum of Mulliken charges =   0.00000   2.00000

 Dipole moment (field-independent basis, Debye):
    X=              0.0000    Y=              0.0000    Z=             -0.0000  Tot=              0.0000
 Quadrupole moment (field-independent basis, Debye-Ang):
   XX=            -13.2103   YY=            -15.3059   ZZ=            -12.8692
   XY=              0.5192   XZ=              0.0000   YZ=             -0.0000

 Normal termination of Gaussian 09 at Thu Feb 23 13:06:50 2017.
