 Gaussian 09, Revision E.01,
 Gaussian 09:  ES64L-G09RevE.01 30-Nov-2015

 ----------------------------------------------------------------------
 #uhf/gen scf(tight,novaracc,noincfock,fulldiag, ) stable(crhf) guess=m
 ix geom=nocrowd test
 ----------------------------------------------------------------------

 hf stability analysis of h10 triangular lattice, y= 0.9802409242172439
 6 alpha= 59.000000000000000
 ----------------------------------------------------------------------
 Symbolic Z-matrix:
 Charge =  0 Multiplicity = 3

                         Standard orientation:
 ---------------------------------------------------------------------
 Center     Atomic      Atomic             Coordinates (Angstroms)
 Number     Number       Type             X           Y           Z
 ---------------------------------------------------------------------
      1          1           0        2.019446    1.645549   -0.000000
      2          1           0        2.019446    0.501967   -0.000000
      3          1           0        1.009723    1.108670   -0.000000
      4          1           0        1.009723   -0.034912   -0.000000
      5          1           0       -0.000000    0.571791    0.000000
      6          1           0       -0.000000   -0.571791    0.000000
      7          1           0       -1.009723    0.034912   -0.000000
      8          1           0       -1.009723   -1.108670   -0.000000
      9          1           0       -2.019446   -0.501967   -0.000000
     10          1           0       -2.019446   -1.645549   -0.000000
 ---------------------------------------------------------------------

 SCF Done:  E(UHF) =  -4.88018019287     A.U. after   28 cycles
 E2 =    -0.7585738445D-01 EUMP2 =    -0.49560375773249D+01

 The electronic state is 3-BU.
 Alpha  occ. eigenvalues --   -0.88128  -0.79561  -0.59814  -0.43234  -0.36856
 Alpha  occ. eigenvalues --   -0.31981
 Alpha virt. eigenvalues --    0.16629   0.18634   0.50491   0.57738
  Beta  occ. eigenvalues --   -0.82656  -0.67833  -0.48672  -0.34662
  Beta virt. eigenvalues --    0.00306   0.05483   0.28618   0.30400   0.59610
  Beta virt. eigenvalues --    0.64395

 Mulliken charges and spin densities:
               1          2
     1  H    0.011001   0.474388
     2  H    0.027677   0.321882
     3  H    0.031891   0.087926
     4  H   -0.035467   0.110363
     5  H   -0.035102   0.005440
     6  H   -0.035102   0.005440
     7  H   -0.035467   0.110363
     8  H    0.031891   0.087926
     9  H    0.027677   0.321882
    10  H    0.011001   0.474388
 Sum of Mulliken charges =   0.00000   2.00000

 Dipole moment (field-independent basis, Debye):
    X=             -0.0000    Y=              0.0000    Z=             -0.0000  Tot=              0.0000
 Quadrupole moment (field-independent basis, Debye-Ang):
   XX=            -13.0506   YY=            -15.0064   ZZ=            -12.9592
   XY=              1.5466   XZ=             -0.0000   YZ=              0.0000

 Normal termination of Gaussian 09 at Thu Feb 23 13:08:48 2017.
