 Gaussian 09, Revision E.01,
 Gaussian 09:  ES64L-G09RevE.01 30-Nov-2015

 ----------------------------------------------------------------------
 #uhf/gen scf(tight,novaracc,noincfock,fulldiag, ) stable(crhf) guess=m
 ix geom=nocrowd test
 ----------------------------------------------------------------------

 hf stability analysis of h10 triangular lattice, y= 0.3967414199883826
 4 alpha= 15.250000000000000
 ----------------------------------------------------------------------
 Symbolic Z-matrix:
 Charge =  0 Multiplicity = 3

                         Standard orientation:
 ---------------------------------------------------------------------
 Center     Atomic      Atomic             Coordinates (Angstroms)
 Number     Number       Type             X           Y           Z
 ---------------------------------------------------------------------
      1          1           0        1.531084   -1.845094   -0.000000
      2          1           0        1.531084   -3.353437   -0.000000
      3          1           0        0.765542   -0.545461   -0.000000
      4          1           0        0.765542   -2.053804   -0.000000
      5          1           0        0.000000    0.754172    0.000000
      6          1           0       -0.000000   -0.754172   -0.000000
      7          1           0       -0.765542    2.053804    0.000000
      8          1           0       -0.765542    0.545461   -0.000000
      9          1           0       -1.531084    3.353437    0.000000
     10          1           0       -1.531084    1.845094   -0.000000
 ---------------------------------------------------------------------

 SCF Done:  E(UHF) =  -5.10060651899     A.U. after   18 cycles
 E2 =    -0.5273058294D-01 EUMP2 =    -0.51533371019283D+01

 The electronic state is 3-BU.
 Alpha  occ. eigenvalues --   -0.76580  -0.71423  -0.62549  -0.51115  -0.40094
 Alpha  occ. eigenvalues --   -0.34918
 Alpha virt. eigenvalues --    0.18953   0.29615   0.46182   0.63275
  Beta  occ. eigenvalues --   -0.75415  -0.68332  -0.56823  -0.42843
  Beta virt. eigenvalues --    0.18673   0.19593   0.21546   0.30720   0.47593
  Beta virt. eigenvalues --    0.64107

 Mulliken charges and spin densities:
               1          2
     1  H   -0.009293   0.049253
     2  H   -0.034296   0.963460
     3  H    0.006580  -0.031801
     4  H    0.033396  -0.022551
     5  H    0.003613   0.041640
     6  H    0.003613   0.041640
     7  H    0.033396  -0.022551
     8  H    0.006580  -0.031801
     9  H   -0.034296   0.963460
    10  H   -0.009293   0.049253
 Sum of Mulliken charges =  -0.00000   2.00000

 Dipole moment (field-independent basis, Debye):
    X=              0.0000    Y=             -0.0000    Z=              0.0000  Tot=              0.0000
 Quadrupole moment (field-independent basis, Debye-Ang):
   XX=            -13.0416   YY=            -20.4515   ZZ=            -12.7093
   XY=              4.4821   XZ=              0.0000   YZ=             -0.0000

 Normal termination of Gaussian 09 at Thu Feb 23 12:58:38 2017.
