 Gaussian 09, Revision E.01,
 Gaussian 09:  ES64L-G09RevE.01 30-Nov-2015

 ----------------------------------------------------------------------
 #uhf/gen scf(tight,novaracc,noincfock,fulldiag, ) stable(crhf) guess=m
 ix geom=nocrowd test
 ----------------------------------------------------------------------

 hf stability analysis of h10 triangular lattice, y= 0.7499531690997017
 8 alpha= 44.250000000000000
 ----------------------------------------------------------------------
 Symbolic Z-matrix:
 Charge =  0 Multiplicity = 3

                         Standard orientation:
 ---------------------------------------------------------------------
 Center     Atomic      Atomic             Coordinates (Angstroms)
 Number     Number       Type             X           Y           Z
 ---------------------------------------------------------------------
      1          1           0        2.148772    0.481109   -0.000000
      2          1           0        2.148772   -0.593645   -0.000000
      3          1           0        1.074386    0.509243   -0.000000
      4          1           0        1.074386   -0.565511   -0.000000
      5          1           0       -0.000000    0.537377    0.000000
      6          1           0       -0.000000   -0.537377    0.000000
      7          1           0       -1.074386    0.565511    0.000000
      8          1           0       -1.074386   -0.509243    0.000000
      9          1           0       -2.148772    0.593645    0.000000
     10          1           0       -2.148772   -0.481109    0.000000
 ---------------------------------------------------------------------

 SCF Done:  E(UHF) =  -4.92492430226     A.U. after   22 cycles
 E2 =    -0.7201852301D-01 EUMP2 =    -0.49969428252650D+01

 The electronic state is 3-BU.
 Alpha  occ. eigenvalues --   -0.90497  -0.81652  -0.57729  -0.48910  -0.37213
 Alpha  occ. eigenvalues --   -0.34683
 Alpha virt. eigenvalues --    0.14594   0.31341   0.43722   0.88299
  Beta  occ. eigenvalues --   -0.84546  -0.66425  -0.49273  -0.40887
  Beta virt. eigenvalues --    0.02757   0.04955   0.22853   0.40581   0.59355
  Beta virt. eigenvalues --    0.94763

 Mulliken charges and spin densities:
               1          2
     1  H    0.025886   0.280112
     2  H    0.025009   0.302803
     3  H   -0.025291   0.366832
     4  H   -0.024222   0.359880
     5  H   -0.001382  -0.309628
     6  H   -0.001382  -0.309628
     7  H   -0.024222   0.359880
     8  H   -0.025291   0.366832
     9  H    0.025009   0.302803
    10  H    0.025886   0.280112
 Sum of Mulliken charges =  -0.00000   2.00000

 Dipole moment (field-independent basis, Debye):
    X=             -0.0000    Y=              0.0000    Z=              0.0000  Tot=              0.0000
 Quadrupole moment (field-independent basis, Debye-Ang):
   XX=            -13.3597   YY=            -15.3195   ZZ=            -12.8496
   XY=             -0.0590   XZ=              0.0000   YZ=              0.0000

 Normal termination of Gaussian 09 at Thu Feb 23 13:05:23 2017.
