 Gaussian 09, Revision E.01,
 Gaussian 09:  ES64L-G09RevE.01 30-Nov-2015

 ----------------------------------------------------------------------
 #uhf/gen scf(tight,novaracc,noincfock,fulldiag, ) stable(crhf) guess=m
 ix geom=nocrowd test
 ----------------------------------------------------------------------

 hf stability analysis of h10 triangular lattice, y= 1.2680906370950717
  alpha= 70.250000000000000
 ----------------------------------------------------------------------
 Symbolic Z-matrix:
 Charge =  0 Multiplicity = 3

                         Standard orientation:
 ---------------------------------------------------------------------
 Center     Atomic      Atomic             Coordinates (Angstroms)
 Number     Number       Type             X           Y           Z
 ---------------------------------------------------------------------
      1          1           0        1.714036    2.752966   -0.000000
      2          1           0        1.714036    1.405619   -0.000000
      3          1           0        0.857018    1.713319   -0.000000
      4          1           0        0.857018    0.365973   -0.000000
      5          1           0        0.000000    0.673673   -0.000000
      6          1           0       -0.000000   -0.673673   -0.000000
      7          1           0       -0.857018   -0.365973   -0.000000
      8          1           0       -0.857018   -1.713319   -0.000000
      9          1           0       -1.714036   -1.405619   -0.000000
     10          1           0       -1.714036   -2.752966   -0.000000
 ---------------------------------------------------------------------

 SCF Done:  E(UHF) =  -4.85066165282     A.U. after   35 cycles
 E2 =    -0.5771369458D-01 EUMP2 =    -0.49083753474024D+01

 Unable to determine electronic state:  partially filled degenerate orbitals.
 Alpha  occ. eigenvalues --   -0.85002  -0.75101  -0.62095  -0.45131  -0.30280
 Alpha  occ. eigenvalues --   -0.25433
 Alpha virt. eigenvalues --    0.13989   0.17770   0.34812   0.53458
  Beta  occ. eigenvalues --   -0.74799  -0.69028  -0.52938  -0.35881
  Beta virt. eigenvalues --    0.06917   0.13074   0.24033   0.26719   0.45683
  Beta virt. eigenvalues --    0.67214

 Mulliken charges and spin densities:
               1          2
     1  H   -0.068161   0.876273
     2  H   -0.053178   0.393010
     3  H    0.106493  -0.262937
     4  H    0.052895  -0.030256
     5  H   -0.057097   0.306757
     6  H   -0.015516   0.488523
     7  H   -0.084104   0.446036
     8  H    0.054226   0.123631
     9  H    0.090438   0.311931
    10  H   -0.025996  -0.652968
 Sum of Mulliken charges =  -0.00000   2.00000

 Dipole moment (field-independent basis, Debye):
    X=             -0.7504    Y=             -0.9908    Z=             -0.0000  Tot=              1.2429
 Quadrupole moment (field-independent basis, Debye-Ang):
   XX=            -14.2051   YY=            -17.1090   ZZ=            -12.8241
   XY=             -2.2078   XZ=              0.0000   YZ=              0.0000

 Normal termination of Gaussian 09 at Thu Feb 23 13:11:22 2017.
