 Gaussian 09, Revision E.01,
 Gaussian 09:  ES64L-G09RevE.01 30-Nov-2015

 ----------------------------------------------------------------------
 #uhf/gen scf(tight,novaracc,noincfock,fulldiag, ) stable(crhf) guess=m
 ix geom=nocrowd test
 ----------------------------------------------------------------------

 hf stability analysis of h10 triangular lattice, y= 0.7022134528066417
 1 alpha= 40.500000000000000
 ----------------------------------------------------------------------
 Symbolic Z-matrix:
 Charge =  0 Multiplicity = 3

                         Standard orientation:
 ---------------------------------------------------------------------
 Center     Atomic      Atomic             Coordinates (Angstroms)
 Number     Number       Type             X           Y           Z
 ---------------------------------------------------------------------
      1          1           0        2.135869    0.202335   -0.000000
      2          1           0        2.135869   -0.878912    0.000000
      3          1           0        1.067935    0.371479   -0.000000
      4          1           0        1.067935   -0.709767    0.000000
      5          1           0       -0.000000    0.540623   -0.000000
      6          1           0       -0.000000   -0.540623   -0.000000
      7          1           0       -1.067935    0.709767    0.000000
      8          1           0       -1.067935   -0.371479   -0.000000
      9          1           0       -2.135869    0.878912    0.000000
     10          1           0       -2.135869   -0.202335    0.000000
 ---------------------------------------------------------------------

 SCF Done:  E(UHF) =  -4.92228475528     A.U. after   21 cycles
 E2 =    -0.7255496035D-01 EUMP2 =    -0.49948397156268D+01

 The electronic state is 3-BU.
 Alpha  occ. eigenvalues --   -0.90258  -0.81466  -0.57958  -0.48409  -0.36594
 Alpha  occ. eigenvalues --   -0.34954
 Alpha virt. eigenvalues --    0.14942   0.29405   0.44885   0.84450
  Beta  occ. eigenvalues --   -0.84312  -0.66573  -0.49214  -0.40218
  Beta virt. eigenvalues --    0.02953   0.04340   0.23481   0.39573   0.59299
  Beta virt. eigenvalues --    0.90993

 Mulliken charges and spin densities:
               1          2
     1  H    0.026182   0.235561
     2  H    0.023344   0.360207
     3  H   -0.022242   0.364986
     4  H   -0.016272   0.324930
     5  H   -0.011013  -0.285685
     6  H   -0.011013  -0.285685
     7  H   -0.016272   0.324930
     8  H   -0.022242   0.364986
     9  H    0.023344   0.360207
    10  H    0.026182   0.235561
 Sum of Mulliken charges =   0.00000   2.00000

 Dipole moment (field-independent basis, Debye):
    X=              0.0000    Y=              0.0000    Z=              0.0000  Tot=              0.0000
 Quadrupole moment (field-independent basis, Debye-Ang):
   XX=            -13.2577   YY=            -15.3165   ZZ=            -12.8627
   XY=             -0.4023   XZ=              0.0000   YZ=              0.0000

 Normal termination of Gaussian 09 at Thu Feb 23 13:04:31 2017.
