 Gaussian 09, Revision E.01,
 Gaussian 09:  ES64L-G09RevE.01 30-Nov-2015

 ----------------------------------------------------------------------
 #uhf/gen scf(tight,novaracc,noincfock,fulldiag, ) stable(crhf) guess=m
 ix geom=nocrowd test
 ----------------------------------------------------------------------

 hf stability analysis of h10 triangular lattice, y= 1.0760973851886237
  alpha= 63.500000000000000
 ----------------------------------------------------------------------
 Symbolic Z-matrix:
 Charge =  0 Multiplicity = 3

                         Standard orientation:
 ---------------------------------------------------------------------
 Center     Atomic      Atomic             Coordinates (Angstroms)
 Number     Number       Type             X           Y           Z
 ---------------------------------------------------------------------
      1          1           0        1.920609    2.048499    0.000000
      2          1           0        1.920609    0.846067    0.000000
      3          1           0        0.960305    1.324857    0.000000
      4          1           0        0.960305    0.122426    0.000000
      5          1           0       -0.000000    0.601216    0.000000
      6          1           0       -0.000000   -0.601216    0.000000
      7          1           0       -0.960305   -0.122426    0.000000
      8          1           0       -0.960305   -1.324857    0.000000
      9          1           0       -1.920609   -0.846067    0.000000
     10          1           0       -1.920609   -2.048499    0.000000
 ---------------------------------------------------------------------

 SCF Done:  E(UHF) =  -4.85484934597     A.U. after   21 cycles
 E2 =    -0.6366446218D-01 EUMP2 =    -0.49185138081473D+01

 The electronic state is 3-BU.
 Alpha  occ. eigenvalues --   -0.87975  -0.77797  -0.61424  -0.40754  -0.37773
 Alpha  occ. eigenvalues --   -0.29250
 Alpha virt. eigenvalues --    0.15363   0.18013   0.41064   0.52813
  Beta  occ. eigenvalues --   -0.81672  -0.70496  -0.51029  -0.33019
  Beta virt. eigenvalues --    0.02086   0.10721   0.23292   0.31652   0.49252
  Beta virt. eigenvalues --    0.58954

 Mulliken charges and spin densities:
               1          2
     1  H   -0.092761   0.426581
     2  H    0.062057   0.473448
     3  H    0.111670  -0.100718
     4  H   -0.119865  -0.260537
     5  H    0.038899   0.461227
     6  H    0.038899   0.461227
     7  H   -0.119865  -0.260537
     8  H    0.111670  -0.100718
     9  H    0.062057   0.473448
    10  H   -0.092761   0.426581
 Sum of Mulliken charges =  -0.00000   2.00000

 Dipole moment (field-independent basis, Debye):
    X=             -0.0000    Y=             -0.0000    Z=             -0.0000  Tot=              0.0000
 Quadrupole moment (field-independent basis, Debye-Ang):
   XX=            -15.5179   YY=            -17.0752   ZZ=            -12.9204
   XY=             -1.6137   XZ=             -0.0000   YZ=             -0.0000

 Normal termination of Gaussian 09 at Thu Feb 23 13:09:50 2017.
