 Gaussian 09, Revision E.01,
 Gaussian 09:  ES64L-G09RevE.01 30-Nov-2015

 ----------------------------------------------------------------------
 #uhf/gen scf(tight,novaracc,noincfock,fulldiag, ) stable(crhf) guess=m
 ix geom=nocrowd test
 ----------------------------------------------------------------------

 hf stability analysis of h10 triangular lattice, y= 0.7834165171194891
 2 alpha= 46.750000000000000
 ----------------------------------------------------------------------
 Symbolic Z-matrix:
 Charge =  0 Multiplicity = 3

                         Standard orientation:
 ---------------------------------------------------------------------
 Center     Atomic      Atomic             Coordinates (Angstroms)
 Number     Number       Type             X           Y           Z
 ---------------------------------------------------------------------
      1          1           0        2.147135    0.669111    0.000000
      2          1           0        2.147135   -0.406462    0.000000
      3          1           0        1.073567    0.603449    0.000000
      4          1           0        1.073567   -0.472125    0.000000
      5          1           0        0.000000    0.537787    0.000000
      6          1           0       -0.000000   -0.537787    0.000000
      7          1           0       -1.073567    0.472125    0.000000
      8          1           0       -1.073567   -0.603449    0.000000
      9          1           0       -2.147135    0.406462    0.000000
     10          1           0       -2.147135   -0.669111    0.000000
 ---------------------------------------------------------------------

 SCF Done:  E(UHF) =  -4.92461706380     A.U. after   22 cycles
 E2 =    -0.7208639259D-01 EUMP2 =    -0.49967034563922D+01

 The electronic state is 3-BU.
 Alpha  occ. eigenvalues --   -0.90467  -0.81629  -0.57760  -0.48847  -0.37133
 Alpha  occ. eigenvalues --   -0.34719
 Alpha virt. eigenvalues --    0.14640   0.31074   0.43890   0.87796
  Beta  occ. eigenvalues --   -0.84516  -0.66445  -0.49266  -0.40801
  Beta virt. eigenvalues --    0.02780   0.04875   0.22933   0.40454   0.59344
  Beta virt. eigenvalues --    0.94273

 Mulliken charges and spin densities:
               1          2
     1  H    0.024392   0.318413
     2  H    0.026310   0.266081
     3  H   -0.022775   0.352944
     4  H   -0.025244   0.369081
     5  H   -0.002683  -0.306520
     6  H   -0.002683  -0.306520
     7  H   -0.025244   0.369081
     8  H   -0.022775   0.352944
     9  H    0.026310   0.266081
    10  H    0.024392   0.318413
 Sum of Mulliken charges =  -0.00000   2.00000

 Dipole moment (field-independent basis, Debye):
    X=              0.0000    Y=              0.0000    Z=              0.0000  Tot=              0.0000
 Quadrupole moment (field-independent basis, Debye-Ang):
   XX=            -13.3461   YY=            -15.3205   ZZ=            -12.8513
   XY=              0.1401   XZ=             -0.0000   YZ=              0.0000

 Normal termination of Gaussian 09 at Thu Feb 23 13:05:58 2017.
