 Gaussian 09, Revision E.01,
 Gaussian 09:  ES64L-G09RevE.01 30-Nov-2015

 ----------------------------------------------------------------------
 #uhf/gen scf(tight,novaracc,noincfock,fulldiag, ) stable(crhf) guess=m
 ix geom=nocrowd test
 ----------------------------------------------------------------------

 hf stability analysis of h10 triangular lattice, y= 0.4331194750473593
 1 alpha= 18.000000000000000
 ----------------------------------------------------------------------
 Symbolic Z-matrix:
 Charge =  0 Multiplicity = 3

                         Standard orientation:
 ---------------------------------------------------------------------
 Center     Atomic      Atomic             Coordinates (Angstroms)
 Number     Number       Type             X           Y           Z
 ---------------------------------------------------------------------
      1          1           0        1.647684   -1.567041    0.000000
      2          1           0        1.647684   -2.968645    0.000000
      3          1           0        0.823842   -0.433119    0.000000
      4          1           0        0.823842   -1.834723    0.000000
      5          1           0        0.000000    0.700802    0.000000
      6          1           0       -0.000000   -0.700802    0.000000
      7          1           0       -0.823842    1.834723   -0.000000
      8          1           0       -0.823842    0.433119   -0.000000
      9          1           0       -1.647684    2.968645   -0.000000
     10          1           0       -1.647684    1.567041   -0.000000
 ---------------------------------------------------------------------

 SCF Done:  E(UHF) =  -4.86467302003     A.U. after   26 cycles
 E2 =    -0.6571512525D-01 EUMP2 =    -0.49303881452800D+01

 Unable to determine electronic state:  partially filled degenerate orbitals.
 Alpha  occ. eigenvalues --   -0.82924  -0.74267  -0.62504  -0.46831  -0.31632
 Alpha  occ. eigenvalues --   -0.21602
 Alpha virt. eigenvalues --    0.10305   0.18715   0.36444   0.56483
  Beta  occ. eigenvalues --   -0.73869  -0.67611  -0.53444  -0.36691
  Beta virt. eigenvalues --    0.04153   0.16059   0.24081   0.27110   0.47084
  Beta virt. eigenvalues --    0.67350

 Mulliken charges and spin densities:
               1          2
     1  H    0.045669   0.422716
     2  H    0.009501  -0.514579
     3  H   -0.066928   0.298311
     4  H    0.061524   0.163621
     5  H   -0.042806   0.218979
     6  H   -0.032077   0.451292
     7  H    0.077785  -0.138878
     8  H    0.037640  -0.040059
     9  H   -0.061162   0.920037
    10  H   -0.029146   0.218561
 Sum of Mulliken charges =   0.00000   2.00000

 Dipole moment (field-independent basis, Debye):
    X=              0.6732    Y=             -1.2460    Z=              0.0000  Tot=              1.4162
 Quadrupole moment (field-independent basis, Debye-Ang):
   XX=            -13.6869   YY=            -16.2058   ZZ=            -12.8599
   XY=              1.6475   XZ=             -0.0000   YZ=              0.0000

 Normal termination of Gaussian 09 at Thu Feb 23 12:59:15 2017.
