 Gaussian 09, Revision E.01,
 Gaussian 09:  ES64L-G09RevE.01 30-Nov-2015

 ----------------------------------------------------------------------
 #uhf/gen scf(tight,novaracc,noincfock,fulldiag, ) stable(crhf) guess=m
 ix geom=nocrowd test
 ----------------------------------------------------------------------

 hf stability analysis of h10 triangular lattice, y= 1.0940617386278098
  alpha= 64.250000000000000
 ----------------------------------------------------------------------
 Symbolic Z-matrix:
 Charge =  0 Multiplicity = 3

                         Standard orientation:
 ---------------------------------------------------------------------
 Center     Atomic      Atomic             Coordinates (Angstroms)
 Number     Number       Type             X           Y           Z
 ---------------------------------------------------------------------
      1          1           0        1.901240    2.119655    0.000000
      2          1           0        1.901240    0.904973    0.000000
      3          1           0        0.950620    1.363498    0.000000
      4          1           0        0.950620    0.148816    0.000000
      5          1           0        0.000000    0.607341   -0.000000
      6          1           0       -0.000000   -0.607341   -0.000000
      7          1           0       -0.950620   -0.148816    0.000000
      8          1           0       -0.950620   -1.363498    0.000000
      9          1           0       -1.901240   -0.904973    0.000000
     10          1           0       -1.901240   -2.119655    0.000000
 ---------------------------------------------------------------------

 SCF Done:  E(UHF) =  -4.85357555815     A.U. after   19 cycles
 E2 =    -0.6068494040D-01 EUMP2 =    -0.49142604985530D+01

 The electronic state is 3-BU.
 Alpha  occ. eigenvalues --   -0.87555  -0.77444  -0.61665  -0.40534  -0.37837
 Alpha  occ. eigenvalues --   -0.29094
 Alpha virt. eigenvalues --    0.15207   0.18339   0.39108   0.53325
  Beta  occ. eigenvalues --   -0.81563  -0.70830  -0.51339  -0.33148
  Beta virt. eigenvalues --    0.02839   0.11640   0.22589   0.31662   0.47356
  Beta virt. eigenvalues --    0.59015

 Mulliken charges and spin densities:
               1          2
     1  H   -0.097591   0.467625
     2  H    0.055108   0.479949
     3  H    0.118508  -0.143581
     4  H   -0.106180  -0.298038
     5  H    0.030155   0.494045
     6  H    0.030155   0.494045
     7  H   -0.106180  -0.298038
     8  H    0.118508  -0.143581
     9  H    0.055108   0.479949
    10  H   -0.097591   0.467625
 Sum of Mulliken charges =  -0.00000   2.00000

 Dipole moment (field-independent basis, Debye):
    X=              0.0000    Y=             -0.0000    Z=             -0.0000  Tot=              0.0000
 Quadrupole moment (field-independent basis, Debye-Ang):
   XX=            -15.6767   YY=            -17.3785   ZZ=            -12.9084
   XY=             -1.9783   XZ=              0.0000   YZ=              0.0000

 Normal termination of Gaussian 09 at Thu Feb 23 13:10:00 2017.
