 Gaussian 09, Revision E.01,
 Gaussian 09:  ES64L-G09RevE.01 30-Nov-2015

 ----------------------------------------------------------------------
 #uhf/gen scf(tight,novaracc,noincfock,fulldiag, ) stable(crhf) guess=m
 ix geom=nocrowd test
 ----------------------------------------------------------------------

 hf stability analysis of h10 triangular lattice, y= 0.2614075542186236
 6 alpha= 6.7500000000000000
 ----------------------------------------------------------------------
 Symbolic Z-matrix:
 Charge =  0 Multiplicity = 3

                         Standard orientation:
 ---------------------------------------------------------------------
 Center     Atomic      Atomic             Coordinates (Angstroms)
 Number     Number       Type             X           Y           Z
 ---------------------------------------------------------------------
      1          1           0        1.038382   -3.213155   -0.000000
      2          1           0        1.038382   -5.437192   -0.000000
      3          1           0        0.519191   -1.050568   -0.000000
      4          1           0        0.519191   -3.274606   -0.000000
      5          1           0        0.000000    1.112019    0.000000
      6          1           0       -0.000000   -1.112019    0.000000
      7          1           0       -0.519191    3.274606   -0.000000
      8          1           0       -0.519191    1.050568   -0.000000
      9          1           0       -1.038382    5.437192   -0.000000
     10          1           0       -1.038382    3.213155   -0.000000
 ---------------------------------------------------------------------

 SCF Done:  E(UHF) =  -4.92072723879     A.U. after   11 cycles
 E2 =    -0.2954390053D-01 EUMP2 =    -0.49502711393208D+01

 The electronic state is 3-BU.
 Alpha  occ. eigenvalues --   -0.73421  -0.71859  -0.69432  -0.66906  -0.49459
 Alpha  occ. eigenvalues --   -0.49447
 Alpha virt. eigenvalues --    0.49466   0.55116   0.63084   0.70450
  Beta  occ. eigenvalues --   -0.73272  -0.71444  -0.68946  -0.66676
  Beta virt. eigenvalues --    0.13539   0.13545   0.49508   0.55222   0.63191
  Beta virt. eigenvalues --    0.70494

 Mulliken charges and spin densities:
               1          2
     1  H   -0.001254  -0.001904
     2  H    0.003877   1.003873
     3  H   -0.000137  -0.000028
     4  H   -0.002641  -0.001991
     5  H    0.000156   0.000051
     6  H    0.000156   0.000051
     7  H   -0.002641  -0.001991
     8  H   -0.000137  -0.000028
     9  H    0.003877   1.003873
    10  H   -0.001254  -0.001904
 Sum of Mulliken charges =  -0.00000   2.00000

 Dipole moment (field-independent basis, Debye):
    X=              0.0000    Y=              0.0000    Z=             -0.0000  Tot=              0.0000
 Quadrupole moment (field-independent basis, Debye-Ang):
   XX=            -12.5113   YY=            -15.0701   ZZ=            -13.3892
   XY=              0.4588   XZ=             -0.0000   YZ=             -0.0000

 Normal termination of Gaussian 09 at Thu Feb 23 12:56:47 2017.
