 Gaussian 09, Revision E.01,
 Gaussian 09:  ES64L-G09RevE.01 30-Nov-2015

 ----------------------------------------------------------------------
 #uhf/gen scf(tight,novaracc,noincfock,fulldiag, ) stable(crhf) guess=m
 ix geom=nocrowd test
 ----------------------------------------------------------------------

 hf stability analysis of h10 triangular lattice, y= 0.7210052279144877
 3 alpha= 42.000000000000000
 ----------------------------------------------------------------------
 Symbolic Z-matrix:
 Charge =  0 Multiplicity = 3

                         Standard orientation:
 ---------------------------------------------------------------------
 Center     Atomic      Atomic             Coordinates (Angstroms)
 Number     Number       Type             X           Y           Z
 ---------------------------------------------------------------------
      1          1           0        2.143245    0.313499   -0.000000
      2          1           0        2.143245   -0.764027   -0.000000
      3          1           0        1.071623    0.426131   -0.000000
      4          1           0        1.071623   -0.651395   -0.000000
      5          1           0       -0.000000    0.538763   -0.000000
      6          1           0       -0.000000   -0.538763   -0.000000
      7          1           0       -1.071623    0.651395    0.000000
      8          1           0       -1.071623   -0.426131    0.000000
      9          1           0       -2.143245    0.764027    0.000000
     10          1           0       -2.143245   -0.313499    0.000000
 ---------------------------------------------------------------------

 SCF Done:  E(UHF) =  -4.92385447206     A.U. after   21 cycles
 E2 =    -0.7224789258D-01 EUMP2 =    -0.49961023646450D+01

 The electronic state is 3-BU.
 Alpha  occ. eigenvalues --   -0.90396  -0.81573  -0.57830  -0.48697  -0.36945
 Alpha  occ. eigenvalues --   -0.34803
 Alpha virt. eigenvalues --    0.14748   0.30467   0.44261   0.86618
  Beta  occ. eigenvalues --   -0.84445  -0.66491  -0.49248  -0.40599
  Beta virt. eigenvalues --    0.02837   0.04687   0.23124   0.40152   0.59323
  Beta virt. eigenvalues --    0.93121

 Mulliken charges and spin densities:
               1          2
     1  H    0.026525   0.250499
     2  H    0.023743   0.337807
     3  H   -0.024362   0.369124
     4  H   -0.020230   0.341797
     5  H   -0.005677  -0.299226
     6  H   -0.005677  -0.299226
     7  H   -0.020230   0.341797
     8  H   -0.024362   0.369124
     9  H    0.023743   0.337807
    10  H    0.026525   0.250499
 Sum of Mulliken charges =  -0.00000   2.00000

 Dipole moment (field-independent basis, Debye):
    X=             -0.0000    Y=              0.0000    Z=              0.0000  Tot=              0.0000
 Quadrupole moment (field-independent basis, Debye-Ang):
   XX=            -13.3146   YY=            -15.3213   ZZ=            -12.8552
   XY=             -0.2502   XZ=              0.0000   YZ=             -0.0000

 Normal termination of Gaussian 09 at Thu Feb 23 13:04:53 2017.
