 Gaussian 09, Revision E.01,
 Gaussian 09:  ES64L-G09RevE.01 30-Nov-2015

 ----------------------------------------------------------------------
 #uhf/gen scf(tight,novaracc,noincfock,fulldiag, ) stable(crhf) guess=m
 ix geom=nocrowd test
 ----------------------------------------------------------------------

 hf stability analysis of h10 triangular lattice, y= 0.3271170287955045
 3 alpha= 10.500000000000000
 ----------------------------------------------------------------------
 Symbolic Z-matrix:
 Charge =  0 Multiplicity = 3

                         Standard orientation:
 ---------------------------------------------------------------------
 Center     Atomic      Atomic             Coordinates (Angstroms)
 Number     Number       Type             X           Y           Z
 ---------------------------------------------------------------------
      1          1           0        1.286558   -2.454086    0.000000
      2          1           0        1.286558   -4.249109    0.000000
      3          1           0        0.643279   -0.778287    0.000000
      4          1           0        0.643279   -2.573310    0.000000
      5          1           0        0.000000    0.897512    0.000000
      6          1           0       -0.000000   -0.897512    0.000000
      7          1           0       -0.643279    2.573310    0.000000
      8          1           0       -0.643279    0.778287    0.000000
      9          1           0       -1.286558    4.249109    0.000000
     10          1           0       -1.286558    2.454086    0.000000
 ---------------------------------------------------------------------

 SCF Done:  E(UHF) =  -5.19200992053     A.U. after   13 cycles
 E2 =    -0.3912511988D-01 EUMP2 =    -0.52311350404149D+01

 The electronic state is 3-BU.
 Alpha  occ. eigenvalues --   -0.73861  -0.70574  -0.64819  -0.57456  -0.46704
 Alpha  occ. eigenvalues --   -0.46004
 Alpha virt. eigenvalues --    0.33145   0.41561   0.54348   0.67037
  Beta  occ. eigenvalues --   -0.73348  -0.69099  -0.62591  -0.55557
  Beta virt. eigenvalues --    0.15732   0.15842   0.33325   0.41960   0.54757
  Beta virt. eigenvalues --    0.67231

 Mulliken charges and spin densities:
               1          2
     1  H   -0.002979   0.000333
     2  H    0.001634   1.001520
     3  H   -0.000231  -0.000929
     4  H    0.000424  -0.002807
     5  H    0.001152   0.001884
     6  H    0.001152   0.001884
     7  H    0.000424  -0.002807
     8  H   -0.000231  -0.000929
     9  H    0.001634   1.001520
    10  H   -0.002979   0.000333
 Sum of Mulliken charges =  -0.00000   2.00000

 Dipole moment (field-independent basis, Debye):
    X=              0.0000    Y=              0.0000    Z=             -0.0000  Tot=              0.0000
 Quadrupole moment (field-independent basis, Debye-Ang):
   XX=            -12.1408   YY=            -17.1323   ZZ=            -13.0520
   XY=              1.6192   XZ=             -0.0000   YZ=             -0.0000

 Normal termination of Gaussian 09 at Thu Feb 23 12:57:35 2017.
