 Gaussian 09, Revision E.01,
 Gaussian 09:  ES64L-G09RevE.01 30-Nov-2015

 ----------------------------------------------------------------------
 #uhf/gen scf(tight,novaracc,noincfock,fulldiag, ) stable(crhf) guess=m
 ix geom=nocrowd test
 ----------------------------------------------------------------------

 hf stability analysis of h10 triangular lattice, y= 0.4458672966047664
 3 alpha= 19.000000000000000
 ----------------------------------------------------------------------
 Symbolic Z-matrix:
 Charge =  0 Multiplicity = 3

                         Standard orientation:
 ---------------------------------------------------------------------
 Center     Atomic      Atomic             Coordinates (Angstroms)
 Number     Number       Type             X           Y           Z
 ---------------------------------------------------------------------
      1          1           0        1.686303   -1.473617    0.000000
      2          1           0        1.686303   -2.843122    0.000000
      3          1           0        0.843152   -0.394432    0.000000
      4          1           0        0.843152   -1.763937    0.000000
      5          1           0       -0.000000    0.684753    0.000000
      6          1           0       -0.000000   -0.684753   -0.000000
      7          1           0       -0.843152    1.763937    0.000000
      8          1           0       -0.843152    0.394432   -0.000000
      9          1           0       -1.686303    2.843122    0.000000
     10          1           0       -1.686303    1.473617    0.000000
 ---------------------------------------------------------------------

 SCF Done:  E(UHF) =  -4.85640583267     A.U. after   28 cycles
 E2 =    -0.6605314749D-01 EUMP2 =    -0.49224589801602D+01

 Unable to determine electronic state:  partially filled degenerate orbitals.
 Alpha  occ. eigenvalues --   -0.83673  -0.74677  -0.62177  -0.45389  -0.30346
 Alpha  occ. eigenvalues --   -0.23596
 Alpha virt. eigenvalues --    0.11233   0.17439   0.35467   0.55497
  Beta  occ. eigenvalues --   -0.74789  -0.68336  -0.53205  -0.35629
  Beta virt. eigenvalues --    0.06100   0.14110   0.25117   0.25264   0.46190
  Beta virt. eigenvalues --    0.66485

 Mulliken charges and spin densities:
               1          2
     1  H    0.062956   0.399762
     2  H   -0.010867  -0.461746
     3  H   -0.078904   0.284457
     4  H    0.076031   0.145192
     5  H   -0.048661   0.302837
     6  H   -0.034236   0.451198
     7  H    0.099030  -0.222704
     8  H    0.046863  -0.113200
     9  H   -0.070499   0.888679
    10  H   -0.041713   0.325524
 Sum of Mulliken charges =   0.00000   2.00000

 Dipole moment (field-independent basis, Debye):
    X=              0.7283    Y=             -1.1695    Z=             -0.0000  Tot=              1.3777
 Quadrupole moment (field-independent basis, Debye-Ang):
   XX=            -14.0784   YY=            -16.6962   ZZ=            -12.8572
   XY=              2.0262   XZ=              0.0000   YZ=             -0.0000

 Normal termination of Gaussian 09 at Thu Feb 23 12:59:28 2017.
