 Gaussian 09, Revision E.01,
 Gaussian 09:  ES64L-G09RevE.01 30-Nov-2015

 ----------------------------------------------------------------------
 #uhf/gen scf(tight,novaracc,noincfock,fulldiag, ) stable(crhf) guess=m
 ix geom=nocrowd test
 ----------------------------------------------------------------------

 hf stability analysis of h10 triangular lattice, y= 0.5453026111479248
 9 alpha= 27.250000000000000
 ----------------------------------------------------------------------
 Symbolic Z-matrix:
 Charge =  0 Multiplicity = 3

                         Standard orientation:
 ---------------------------------------------------------------------
 Center     Atomic      Atomic             Coordinates (Angstroms)
 Number     Number       Type             X           Y           Z
 ---------------------------------------------------------------------
      1          1           0        1.939133   -0.787698    0.000000
      2          1           0        1.939133   -1.978643    0.000000
      3          1           0        0.969567   -0.096113    0.000000
      4          1           0        0.969567   -1.287058    0.000000
      5          1           0        0.000000    0.595472    0.000000
      6          1           0       -0.000000   -0.595472    0.000000
      7          1           0       -0.969567    1.287058    0.000000
      8          1           0       -0.969567    0.096113    0.000000
      9          1           0       -1.939133    1.978643    0.000000
     10          1           0       -1.939133    0.787698    0.000000
 ---------------------------------------------------------------------

 SCF Done:  E(UHF) =  -4.85701392651     A.U. after   33 cycles
 E2 =    -0.6569448575D-01 EUMP2 =    -0.49227084122607D+01

 The electronic state is 3-BU.
 Alpha  occ. eigenvalues --   -0.88208  -0.78085  -0.61254  -0.41145  -0.37606
 Alpha  occ. eigenvalues --   -0.29630
 Alpha virt. eigenvalues --    0.15703   0.17683   0.43363   0.52478
  Beta  occ. eigenvalues --   -0.81863  -0.70159  -0.50637  -0.33078
  Beta virt. eigenvalues --    0.01442   0.09728   0.24277   0.31499   0.51425
  Beta virt. eigenvalues --    0.58902

 Mulliken charges and spin densities:
               1          2
     1  H    0.066468   0.466292
     2  H   -0.083595   0.412688
     3  H   -0.126572  -0.229321
     4  H    0.101176  -0.070678
     5  H    0.042522   0.421019
     6  H    0.042522   0.421019
     7  H    0.101176  -0.070678
     8  H   -0.126572  -0.229321
     9  H   -0.083595   0.412688
    10  H    0.066468   0.466292
 Sum of Mulliken charges =  -0.00000   2.00000

 Dipole moment (field-independent basis, Debye):
    X=              0.0000    Y=              0.0000    Z=             -0.0000  Tot=              0.0000
 Quadrupole moment (field-independent basis, Debye-Ang):
   XX=            -15.2240   YY=            -16.7579   ZZ=            -12.9290
   XY=              1.1564   XZ=              0.0000   YZ=             -0.0000

 Normal termination of Gaussian 09 at Thu Feb 23 13:01:23 2017.
