 Gaussian 09, Revision E.01,
 Gaussian 09:  ES64L-G09RevE.01 30-Nov-2015

 ----------------------------------------------------------------------
 #uhf/gen scf(tight,novaracc,noincfock,fulldiag, ) stable(crhf) guess=m
 ix geom=nocrowd test
 ----------------------------------------------------------------------

 hf stability analysis of h10 triangular lattice, y= 0.4427008172522774
 5 alpha= 18.750000000000000
 ----------------------------------------------------------------------
 Symbolic Z-matrix:
 Charge =  0 Multiplicity = 3

                         Standard orientation:
 ---------------------------------------------------------------------
 Center     Atomic      Atomic             Coordinates (Angstroms)
 Number     Number       Type             X           Y           Z
 ---------------------------------------------------------------------
      1          1           0        1.676827   -1.496661    0.000000
      2          1           0        1.676827   -2.873906    0.000000
      3          1           0        0.838413   -0.404019    0.000000
      4          1           0        0.838413   -1.781264    0.000000
      5          1           0       -0.000000    0.688622    0.000000
      6          1           0       -0.000000   -0.688622    0.000000
      7          1           0       -0.838413    1.781264   -0.000000
      8          1           0       -0.838413    0.404019   -0.000000
      9          1           0       -1.676827    2.873906   -0.000000
     10          1           0       -1.676827    1.496661   -0.000000
 ---------------------------------------------------------------------

 SCF Done:  E(UHF) =  -4.85851305081     A.U. after   26 cycles
 E2 =    -0.6627235232D-01 EUMP2 =    -0.49247854031280D+01

 Unable to determine electronic state:  partially filled degenerate orbitals.
 Alpha  occ. eigenvalues --   -0.83460  -0.74564  -0.62245  -0.45731  -0.30559
 Alpha  occ. eigenvalues --   -0.23132
 Alpha virt. eigenvalues --    0.10897   0.17736   0.35706   0.55777
  Beta  occ. eigenvalues --   -0.74569  -0.68153  -0.53255  -0.35857
  Beta virt. eigenvalues --    0.05659   0.14577   0.24919   0.25631   0.46397
  Beta virt. eigenvalues --    0.66671

 Mulliken charges and spin densities:
               1          2
     1  H    0.057744   0.407423
     2  H   -0.005534  -0.468994
     3  H   -0.075485   0.283409
     4  H    0.073388   0.148635
     5  H   -0.047518   0.282574
     6  H   -0.034346   0.450430
     7  H    0.094083  -0.201982
     8  H    0.044938  -0.097016
     9  H   -0.068645   0.897249
    10  H   -0.038625   0.298273
 Sum of Mulliken charges =  -0.00000   2.00000

 Dipole moment (field-independent basis, Debye):
    X=              0.7162    Y=             -1.1968    Z=              0.0000  Tot=              1.3947
 Quadrupole moment (field-independent basis, Debye-Ang):
   XX=            -13.9841   YY=            -16.5886   ZZ=            -12.8575
   XY=              1.9499   XZ=             -0.0000   YZ=              0.0000

 Normal termination of Gaussian 09 at Thu Feb 23 12:59:25 2017.
