 Gaussian 09, Revision E.01,
 Gaussian 09:  ES64L-G09RevE.01 30-Nov-2015

 ----------------------------------------------------------------------
 #uhf/gen scf(tight,novaracc,noincfock,fulldiag, ) stable(crhf) guess=m
 ix geom=nocrowd test
 ----------------------------------------------------------------------

 hf stability analysis of h10 triangular lattice, y= 0.4584084631436424
 2 alpha= 20.000000000000000
 ----------------------------------------------------------------------
 Symbolic Z-matrix:
 Charge =  0 Multiplicity = 3

                         Standard orientation:
 ---------------------------------------------------------------------
 Center     Atomic      Atomic             Coordinates (Angstroms)
 Number     Number       Type             X           Y           Z
 ---------------------------------------------------------------------
      1          1           0        1.723052   -1.383305    0.000000
      2          1           0        1.723052   -2.723602    0.000000
      3          1           0        0.861526   -0.356578    0.000000
      4          1           0        0.861526   -1.696875    0.000000
      5          1           0        0.000000    0.670148   -0.000000
      6          1           0       -0.000000   -0.670148   -0.000000
      7          1           0       -0.861526    1.696875    0.000000
      8          1           0       -0.861526    0.356578    0.000000
      9          1           0       -1.723052    2.723602    0.000000
     10          1           0       -1.723052    1.383305    0.000000
 ---------------------------------------------------------------------

 SCF Done:  E(UHF) =  -4.84833690190     A.U. after   38 cycles
 E2 =    -0.6208368690D-01 EUMP2 =    -0.49104205887981D+01

 Unable to determine electronic state:  partially filled degenerate orbitals.
 Alpha  occ. eigenvalues --   -0.84784  -0.75201  -0.61980  -0.44301  -0.30431
 Alpha  occ. eigenvalues --   -0.25055
 Alpha virt. eigenvalues --    0.13366   0.16813   0.34636   0.53901
  Beta  occ. eigenvalues --   -0.75412  -0.69014  -0.53022  -0.35122
  Beta virt. eigenvalues --    0.07452   0.12422   0.23605   0.26671   0.45504
  Beta virt. eigenvalues --    0.66258

 Mulliken charges and spin densities:
               1          2
     1  H   -0.054658   0.425462
     2  H   -0.072889   0.854003
     3  H    0.053353  -0.123673
     4  H    0.113843  -0.289540
     5  H   -0.025818   0.462502
     6  H   -0.051362   0.352563
     7  H    0.072818   0.138355
     8  H   -0.093801   0.353148
     9  H   -0.031461  -0.524506
    10  H    0.089976   0.351686
 Sum of Mulliken charges =   0.00000   2.00000

 Dipole moment (field-independent basis, Debye):
    X=             -0.7612    Y=              0.9988    Z=              0.0000  Tot=              1.2558
 Quadrupole moment (field-independent basis, Debye-Ang):
   XX=            -14.3801   YY=            -17.0577   ZZ=            -12.8469
   XY=              2.2342   XZ=             -0.0000   YZ=              0.0000

 Normal termination of Gaussian 09 at Thu Feb 23 12:59:42 2017.
