 Gaussian 09, Revision E.01,
 Gaussian 09:  ES64L-G09RevE.01 30-Nov-2015

 ----------------------------------------------------------------------
 #uhf/gen scf(tight,novaracc,noincfock,fulldiag, ) stable(crhf) guess=m
 ix geom=nocrowd test
 ----------------------------------------------------------------------

 hf stability analysis of h10 triangular lattice, y= 0.4490208748124050
 5 alpha= 19.250000000000000
 ----------------------------------------------------------------------
 Symbolic Z-matrix:
 Charge =  0 Multiplicity = 3

                         Standard orientation:
 ---------------------------------------------------------------------
 Center     Atomic      Atomic             Coordinates (Angstroms)
 Number     Number       Type             X           Y           Z
 ---------------------------------------------------------------------
      1          1           0        1.695663   -1.450767    0.000000
      2          1           0        1.695663   -2.812713    0.000000
      3          1           0        0.847831   -0.384897    0.000000
      4          1           0        0.847831   -1.746843    0.000000
      5          1           0        0.000000    0.680973   -0.000000
      6          1           0       -0.000000   -0.680973   -0.000000
      7          1           0       -0.847831    1.746843    0.000000
      8          1           0       -0.847831    0.384897    0.000000
      9          1           0       -1.695663    2.812713    0.000000
     10          1           0       -1.695663    1.450767    0.000000
 ---------------------------------------------------------------------

 SCF Done:  E(UHF) =  -4.85432542904     A.U. after   27 cycles
 E2 =    -0.6562344211D-01 EUMP2 =    -0.49199488711544D+01

 Unable to determine electronic state:  partially filled degenerate orbitals.
 Alpha  occ. eigenvalues --   -0.83903  -0.74798  -0.62116  -0.45063  -0.30220
 Alpha  occ. eigenvalues --   -0.24019
 Alpha virt. eigenvalues --    0.11639   0.17167   0.35235   0.55189
  Beta  occ. eigenvalues --   -0.74996  -0.68514  -0.53160  -0.35430
  Beta virt. eigenvalues --    0.06508   0.13656   0.24713   0.25536   0.45996
  Beta virt. eigenvalues --    0.66328

 Mulliken charges and spin densities:
               1          2
     1  H    0.068672   0.391143
     2  H   -0.016229  -0.459983
     3  H   -0.082570   0.289308
     4  H    0.077793   0.142726
     5  H   -0.049484   0.321236
     6  H   -0.033574   0.452292
     7  H    0.103580  -0.242273
     8  H    0.048521  -0.126371
     9  H   -0.071979   0.879733
    10  H   -0.044729   0.352190
 Sum of Mulliken charges =  -0.00000   2.00000

 Dipole moment (field-independent basis, Debye):
    X=              0.7388    Y=             -1.1367    Z=              0.0000  Tot=              1.3557
 Quadrupole moment (field-independent basis, Debye-Ang):
   XX=            -14.1681   YY=            -16.7950   ZZ=            -12.8568
   XY=              2.0916   XZ=              0.0000   YZ=             -0.0000

 Normal termination of Gaussian 09 at Thu Feb 23 12:59:31 2017.
