 Gaussian 09, Revision E.01,
 Gaussian 09:  ES64L-G09RevE.01 30-Nov-2015

 ----------------------------------------------------------------------
 #uhf/gen scf(tight,novaracc,noincfock,fulldiag, ) stable(crhf) guess=m
 ix geom=nocrowd test
 ----------------------------------------------------------------------

 hf stability analysis of h10 triangular lattice, y= 0.3310791093259662
 4 alpha= 10.750000000000000
 ----------------------------------------------------------------------
 Symbolic Z-matrix:
 Charge =  0 Multiplicity = 3

                         Standard orientation:
 ---------------------------------------------------------------------
 Center     Atomic      Atomic             Coordinates (Angstroms)
 Number     Number       Type             X           Y           Z
 ---------------------------------------------------------------------
      1          1           0        1.301075   -2.415475    0.000000
      2          1           0        1.301075   -4.190469    0.000000
      3          1           0        0.650538   -0.763989    0.000000
      4          1           0        0.650538   -2.538983    0.000000
      5          1           0       -0.000000    0.887497    0.000000
      6          1           0       -0.000000   -0.887497    0.000000
      7          1           0       -0.650538    2.538983    0.000000
      8          1           0       -0.650538    0.763989    0.000000
      9          1           0       -1.301075    4.190469    0.000000
     10          1           0       -1.301075    2.415475    0.000000
 ---------------------------------------------------------------------

 SCF Done:  E(UHF) =  -5.19543417422     A.U. after   12 cycles
 E2 =    -0.3981503693D-01 EUMP2 =    -0.52352492111472D+01

 The electronic state is 3-BU.
 Alpha  occ. eigenvalues --   -0.73956  -0.70568  -0.64619  -0.56962  -0.46425
 Alpha  occ. eigenvalues --   -0.45591
 Alpha virt. eigenvalues --    0.32272   0.40828   0.53875   0.66865
  Beta  occ. eigenvalues --   -0.73412  -0.69007  -0.62226  -0.54831
  Beta virt. eigenvalues --    0.15914   0.16041   0.32466   0.41255   0.54314
  Beta virt. eigenvalues --    0.67076

 Mulliken charges and spin densities:
               1          2
     1  H   -0.003121   0.000958
     2  H    0.000874   1.000739
     3  H   -0.000190  -0.001125
     4  H    0.001160  -0.002820
     5  H    0.001277   0.002247
     6  H    0.001277   0.002247
     7  H    0.001160  -0.002820
     8  H   -0.000190  -0.001125
     9  H    0.000874   1.000739
    10  H   -0.003121   0.000958
 Sum of Mulliken charges =   0.00000   2.00000

 Dipole moment (field-independent basis, Debye):
    X=              0.0000    Y=              0.0000    Z=              0.0000  Tot=              0.0000
 Quadrupole moment (field-independent basis, Debye-Ang):
   XX=            -12.1411   YY=            -17.2910   ZZ=            -13.0307
   XY=              1.7288   XZ=              0.0000   YZ=              0.0000

 Normal termination of Gaussian 09 at Thu Feb 23 12:57:38 2017.
