 Gaussian 09, Revision E.01,
 Gaussian 09:  ES64L-G09RevE.01 30-Nov-2015

 ----------------------------------------------------------------------
 #uhf/gen scf(tight,novaracc,noincfock,fulldiag, ) stable(crhf) guess=m
 ix geom=nocrowd test
 ----------------------------------------------------------------------

 hf stability analysis of h10 triangular lattice, y= 0.9122757376900774
 2 alpha= 55.250000000000000
 ----------------------------------------------------------------------
 Symbolic Z-matrix:
 Charge =  0 Multiplicity = 3

                         Standard orientation:
 ---------------------------------------------------------------------
 Center     Atomic      Atomic             Coordinates (Angstroms)
 Number     Number       Type             X           Y           Z
 ---------------------------------------------------------------------
      1          1           0        2.079977    1.332822    0.000000
      2          1           0        2.079977    0.222521    0.000000
      3          1           0        1.039988    0.943986    0.000000
      4          1           0        1.039988   -0.166315    0.000000
      5          1           0       -0.000000    0.555151    0.000000
      6          1           0       -0.000000   -0.555151   -0.000000
      7          1           0       -1.039988    0.166315    0.000000
      8          1           0       -1.039988   -0.943986    0.000000
      9          1           0       -2.079977   -0.222521    0.000000
     10          1           0       -2.079977   -1.332822    0.000000
 ---------------------------------------------------------------------

 SCF Done:  E(UHF) =  -4.90556794720     A.U. after   24 cycles
 E2 =    -0.7487039529D-01 EUMP2 =    -0.49804383424911D+01

 The electronic state is 3-BU.
 Alpha  occ. eigenvalues --   -0.89178  -0.80626  -0.58768  -0.46106  -0.35871
 Alpha  occ. eigenvalues --   -0.34138
 Alpha virt. eigenvalues --    0.16074   0.23266   0.48057   0.70279
  Beta  occ. eigenvalues --   -0.83366  -0.67059  -0.48957  -0.37393
  Beta virt. eigenvalues --    0.02057   0.04063   0.25997   0.35125   0.59508
  Beta virt. eigenvalues --    0.76862

 Mulliken charges and spin densities:
               1          2
     1  H    0.026687   0.434510
     2  H    0.018718   0.230618
     3  H    0.005193   0.222469
     4  H   -0.010082   0.296481
     5  H   -0.040516  -0.184077
     6  H   -0.040516  -0.184077
     7  H   -0.010082   0.296481
     8  H    0.005193   0.222469
     9  H    0.018718   0.230618
    10  H    0.026687   0.434510
 Sum of Mulliken charges =   0.00000   2.00000

 Dipole moment (field-independent basis, Debye):
    X=              0.0000    Y=             -0.0000    Z=              0.0000  Tot=              0.0000
 Quadrupole moment (field-independent basis, Debye-Ang):
   XX=            -12.9501   YY=            -15.0912   ZZ=            -12.9151
   XY=              1.2604   XZ=              0.0000   YZ=             -0.0000

 Normal termination of Gaussian 09 at Thu Feb 23 13:07:56 2017.
