 Gaussian 09, Revision E.01,
 Gaussian 09:  ES64L-G09RevE.01 30-Nov-2015

 ----------------------------------------------------------------------
 #uhf/gen scf(tight,novaracc,noincfock,fulldiag, ) stable(crhf) guess=m
 ix geom=nocrowd test
 ----------------------------------------------------------------------

 hf stability analysis of h10 triangular lattice, y= 0.9428899751596989
 7 alpha= 57.000000000000000
 ----------------------------------------------------------------------
 Symbolic Z-matrix:
 Charge =  0 Multiplicity = 3

                         Standard orientation:
 ---------------------------------------------------------------------
 Center     Atomic      Atomic             Coordinates (Angstroms)
 Number     Number       Type             X           Y           Z
 ---------------------------------------------------------------------
      1          1           0        2.054139    1.476695    0.000000
      2          1           0        2.054139    0.352428    0.000000
      3          1           0        1.027069    1.019414    0.000000
      4          1           0        1.027069   -0.104853    0.000000
      5          1           0        0.000000    0.562134    0.000000
      6          1           0       -0.000000   -0.562134    0.000000
      7          1           0       -1.027069    0.104853    0.000000
      8          1           0       -1.027069   -1.019414    0.000000
      9          1           0       -2.054139   -0.352428    0.000000
     10          1           0       -2.054139   -1.476695    0.000000
 ---------------------------------------------------------------------

 SCF Done:  E(UHF) =  -4.89533419332     A.U. after   26 cycles
 E2 =    -0.7580914654D-01 EUMP2 =    -0.49711433398575D+01

 The electronic state is 3-BU.
 Alpha  occ. eigenvalues --   -0.88676  -0.80206  -0.59138  -0.44968  -0.36228
 Alpha  occ. eigenvalues --   -0.33127
 Alpha virt. eigenvalues --    0.16408   0.21067   0.49133   0.64737
  Beta  occ. eigenvalues --   -0.82993  -0.67288  -0.48820  -0.36143
  Beta virt. eigenvalues --    0.01190   0.04645   0.27088   0.33104   0.59660
  Beta virt. eigenvalues --    0.71269

 Mulliken charges and spin densities:
               1          2
     1  H    0.026261   0.455831
     2  H    0.017092   0.254150
     3  H    0.014601   0.172751
     4  H   -0.010920   0.243503
     5  H   -0.047034  -0.126235
     6  H   -0.047034  -0.126235
     7  H   -0.010920   0.243503
     8  H    0.014601   0.172751
     9  H    0.017092   0.254150
    10  H    0.026261   0.455831
 Sum of Mulliken charges =   0.00000   2.00000

 Dipole moment (field-independent basis, Debye):
    X=              0.0000    Y=             -0.0000    Z=              0.0000  Tot=              0.0000
 Quadrupole moment (field-independent basis, Debye-Ang):
   XX=            -12.8970   YY=            -14.9498   ZZ=            -12.9369
   XY=              1.5515   XZ=             -0.0000   YZ=              0.0000

 Normal termination of Gaussian 09 at Thu Feb 23 13:08:20 2017.
