 Gaussian 09, Revision E.01,
 Gaussian 09:  ES64L-G09RevE.01 30-Nov-2015

 ----------------------------------------------------------------------
 #uhf/gen scf(tight,novaracc,noincfock,fulldiag, ) stable(crhf) guess=m
 ix geom=nocrowd test
 ----------------------------------------------------------------------

 hf stability analysis of h10 triangular lattice, y= 0.3023959355609886
 5 alpha= 9.0000000000000000
 ----------------------------------------------------------------------
 Symbolic Z-matrix:
 Charge =  0 Multiplicity = 3

                         Standard orientation:
 ---------------------------------------------------------------------
 Center     Atomic      Atomic             Coordinates (Angstroms)
 Number     Number       Type             X           Y           Z
 ---------------------------------------------------------------------
      1          1           0        1.194692   -2.710357    0.000000
      2          1           0        1.194692   -4.643409    0.000000
      3          1           0        0.597346   -0.871916    0.000000
      4          1           0        0.597346   -2.804967    0.000000
      5          1           0        0.000000    0.966526   -0.000000
      6          1           0       -0.000000   -0.966526   -0.000000
      7          1           0       -0.597346    2.804967    0.000000
      8          1           0       -0.597346    0.871916    0.000000
      9          1           0       -1.194692    4.643409    0.000000
     10          1           0       -1.194692    2.710357    0.000000
 ---------------------------------------------------------------------

 SCF Done:  E(UHF) =  -5.14075868494     A.U. after   12 cycles
 E2 =    -0.3510964613D-01 EUMP2 =    -0.51758683310661D+01

 The electronic state is 3-BU.
 Alpha  occ. eigenvalues --   -0.73433  -0.70782  -0.66283  -0.60862  -0.48138
 Alpha  occ. eigenvalues --   -0.47941
 Alpha virt. eigenvalues --    0.38850   0.46327   0.57399   0.68130
  Beta  occ. eigenvalues --   -0.73089  -0.69796  -0.64931  -0.59978
  Beta virt. eigenvalues --    0.14726   0.14768   0.38958   0.46581   0.57658
  Beta virt. eigenvalues --    0.68244

 Mulliken charges and spin densities:
               1          2
     1  H   -0.002222  -0.001810
     2  H    0.004279   1.004241
     3  H   -0.000288  -0.000271
     4  H   -0.002348  -0.002741
     5  H    0.000579   0.000582
     6  H    0.000579   0.000582
     7  H   -0.002348  -0.002741
     8  H   -0.000288  -0.000271
     9  H    0.004279   1.004241
    10  H   -0.002222  -0.001810
 Sum of Mulliken charges =  -0.00000   2.00000

 Dipole moment (field-independent basis, Debye):
    X=             -0.0000    Y=              0.0000    Z=              0.0000  Tot=              0.0000
 Quadrupole moment (field-independent basis, Debye-Ang):
   XX=            -12.2156   YY=            -16.2341   ZZ=            -13.1854
   XY=              1.0507   XZ=              0.0000   YZ=              0.0000

 Normal termination of Gaussian 09 at Thu Feb 23 12:57:16 2017.
