 Gaussian 09, Revision E.01,
 Gaussian 09:  ES64L-G09RevE.01 30-Nov-2015

 ----------------------------------------------------------------------
 #uhf/gen scf(tight,novaracc,noincfock,fulldiag, ) stable(crhf) guess=m
 ix geom=nocrowd test
 ----------------------------------------------------------------------

 hf stability analysis of h10 triangular lattice, y= 0.5335894054604231
 1 alpha= 26.250000000000000
 ----------------------------------------------------------------------
 Symbolic Z-matrix:
 Charge =  0 Multiplicity = 3

                         Standard orientation:
 ---------------------------------------------------------------------
 Center     Atomic      Atomic             Coordinates (Angstroms)
 Number     Number       Type             X           Y           Z
 ---------------------------------------------------------------------
      1          1           0        1.914247   -0.865640    0.000000
      2          1           0        1.914247   -2.072067    0.000000
      3          1           0        0.957124   -0.131213    0.000000
      4          1           0        0.957124   -1.337641    0.000000
      5          1           0       -0.000000    0.603214    0.000000
      6          1           0       -0.000000   -0.603214    0.000000
      7          1           0       -0.957124    1.337641   -0.000000
      8          1           0       -0.957124    0.131213   -0.000000
      9          1           0       -1.914247    2.072067   -0.000000
     10          1           0       -1.914247    0.865640   -0.000000
 ---------------------------------------------------------------------

 SCF Done:  E(UHF) =  -4.85431652460     A.U. after   42 cycles
 E2 =    -0.6278224318D-01 EUMP2 =    -0.49170987677747D+01

 The electronic state is 3-BU.
 Alpha  occ. eigenvalues --   -0.87852  -0.77686  -0.61498  -0.40631  -0.37837
 Alpha  occ. eigenvalues --   -0.29171
 Alpha virt. eigenvalues --    0.15288   0.18124   0.40376   0.52964
  Beta  occ. eigenvalues --   -0.81628  -0.70608  -0.51137  -0.33042
  Beta virt. eigenvalues --    0.02326   0.11033   0.23025   0.31672   0.48586
  Beta virt. eigenvalues --    0.58975

 Mulliken charges and spin densities:
               1          2
     1  H    0.059937   0.475687
     2  H   -0.094760   0.437743
     3  H   -0.115857  -0.272214
     4  H    0.114346  -0.113927
     5  H    0.036334   0.472710
     6  H    0.036334   0.472710
     7  H    0.114346  -0.113927
     8  H   -0.115857  -0.272214
     9  H   -0.094760   0.437743
    10  H    0.059937   0.475687
 Sum of Mulliken charges =   0.00000   2.00000

 Dipole moment (field-independent basis, Debye):
    X=             -0.0000    Y=              0.0000    Z=              0.0000  Tot=              0.0000
 Quadrupole moment (field-independent basis, Debye-Ang):
   XX=            -15.5829   YY=            -17.1767   ZZ=            -12.9169
   XY=              1.7423   XZ=             -0.0000   YZ=              0.0000

 Normal termination of Gaussian 09 at Thu Feb 23 13:01:09 2017.
