 Gaussian 09, Revision E.01,
 Gaussian 09:  ES64L-G09RevE.01 30-Nov-2015

 ----------------------------------------------------------------------
 #uhf/gen scf(tight,novaracc,noincfock,fulldiag, ) stable(crhf) guess=m
 ix geom=nocrowd test
 ----------------------------------------------------------------------

 hf stability analysis of h10 triangular lattice, y= 0.6807147699477958
 9 alpha= 38.750000000000000
 ----------------------------------------------------------------------
 Symbolic Z-matrix:
 Charge =  0 Multiplicity = 3

                         Standard orientation:
 ---------------------------------------------------------------------
 Center     Atomic      Atomic             Coordinates (Angstroms)
 Number     Number       Type             X           Y           Z
 ---------------------------------------------------------------------
      1          1           0        2.123515    0.072996   -0.000000
      2          1           0        2.123515   -1.014540   -0.000000
      3          1           0        1.061758    0.308382   -0.000000
      4          1           0        1.061758   -0.779154   -0.000000
      5          1           0        0.000000    0.543768    0.000000
      6          1           0       -0.000000   -0.543768    0.000000
      7          1           0       -1.061758    0.779154   -0.000000
      8          1           0       -1.061758   -0.308382   -0.000000
      9          1           0       -2.123515    1.014540   -0.000000
     10          1           0       -2.123515   -0.072996   -0.000000
 ---------------------------------------------------------------------

 SCF Done:  E(UHF) =  -4.91930486071     A.U. after   22 cycles
 E2 =    -0.7307090593D-01 EUMP2 =    -0.49923757666448D+01

 The electronic state is 3-BU.
 Alpha  occ. eigenvalues --   -0.90025  -0.81286  -0.58155  -0.47916  -0.36022
 Alpha  occ. eigenvalues --   -0.35187
 Alpha virt. eigenvalues --    0.15241   0.27812   0.45767   0.80995
  Beta  occ. eigenvalues --   -0.84093  -0.66697  -0.49158  -0.39584
  Beta virt. eigenvalues --    0.03168   0.03784   0.24064   0.38592   0.59299
  Beta virt. eigenvalues --    0.87583

 Mulliken charges and spin densities:
               1          2
     1  H    0.024842   0.224431
     2  H    0.023623   0.384564
     3  H   -0.018676   0.354039
     4  H   -0.010704   0.300529
     5  H   -0.019084  -0.263562
     6  H   -0.019084  -0.263562
     7  H   -0.010704   0.300529
     8  H   -0.018676   0.354039
     9  H    0.023623   0.384564
    10  H    0.024842   0.224431
 Sum of Mulliken charges =   0.00000   2.00000

 Dipole moment (field-independent basis, Debye):
    X=             -0.0000    Y=              0.0000    Z=             -0.0000  Tot=              0.0000
 Quadrupole moment (field-independent basis, Debye-Ang):
   XX=            -13.1709   YY=            -15.2921   ZZ=            -12.8749
   XY=             -0.6161   XZ=              0.0000   YZ=              0.0000

 Normal termination of Gaussian 09 at Thu Feb 23 13:04:07 2017.
