 Gaussian 09, Revision E.01,
 Gaussian 09:  ES64L-G09RevE.01 30-Nov-2015

 ----------------------------------------------------------------------
 #uhf/gen scf(tight,novaracc,noincfock,fulldiag, ) stable(crhf) guess=m
 ix geom=nocrowd test
 ----------------------------------------------------------------------

 hf stability analysis of h10 triangular lattice, y= 1.0153487862282633
  alpha= 60.750000000000000
 ----------------------------------------------------------------------
 Symbolic Z-matrix:
 Charge =  0 Multiplicity = 3

                         Standard orientation:
 ---------------------------------------------------------------------
 Center     Atomic      Atomic             Coordinates (Angstroms)
 Number     Number       Type             X           Y           Z
 ---------------------------------------------------------------------
      1          1           0        1.984484    1.797958    0.000000
      2          1           0        1.984484    0.634229    0.000000
      3          1           0        0.992242    1.189911    0.000000
      4          1           0        0.992242    0.026182    0.000000
      5          1           0       -0.000000    0.581864    0.000000
      6          1           0       -0.000000   -0.581864    0.000000
      7          1           0       -0.992242   -0.026182   -0.000000
      8          1           0       -0.992242   -1.189911   -0.000000
      9          1           0       -1.984484   -0.634229   -0.000000
     10          1           0       -1.984484   -1.797958   -0.000000
 ---------------------------------------------------------------------

 SCF Done:  E(UHF) =  -4.86689924248     A.U. after   23 cycles
 E2 =    -0.7120499787D-01 EUMP2 =    -0.49381042403539D+01

 The electronic state is 3-BU.
 Alpha  occ. eigenvalues --   -0.88147  -0.78811  -0.60713  -0.41788  -0.37563
 Alpha  occ. eigenvalues --   -0.30980
 Alpha virt. eigenvalues --    0.16890   0.17026   0.50727   0.51678
  Beta  occ. eigenvalues --   -0.82435  -0.68991  -0.49265  -0.33744
  Beta virt. eigenvalues --    0.00326   0.07001   0.27547   0.30284   0.58090
  Beta virt. eigenvalues --    0.59094

 Mulliken charges and spin densities:
               1          2
     1  H   -0.036673   0.450912
     2  H    0.057362   0.418187
     3  H    0.062527  -0.006471
     4  H   -0.097287  -0.096451
     5  H    0.014070   0.233823
     6  H    0.014070   0.233823
     7  H   -0.097287  -0.096451
     8  H    0.062527  -0.006471
     9  H    0.057362   0.418187
    10  H   -0.036673   0.450912
 Sum of Mulliken charges =   0.00000   2.00000

 Dipole moment (field-independent basis, Debye):
    X=              0.0000    Y=             -0.0000    Z=              0.0000  Tot=              0.0000
 Quadrupole moment (field-independent basis, Debye-Ang):
   XX=            -13.9328   YY=            -15.7736   ZZ=            -12.9525
   XY=              0.4478   XZ=             -0.0000   YZ=              0.0000

 Normal termination of Gaussian 09 at Thu Feb 23 13:09:13 2017.
