 Gaussian 09, Revision E.01,
 Gaussian 09:  ES64L-G09RevE.01 30-Nov-2015

 ----------------------------------------------------------------------
 #uhf/gen scf(tight,novaracc,noincfock,fulldiag, ) stable(crhf) guess=m
 ix geom=nocrowd test
 ----------------------------------------------------------------------

 hf stability analysis of h10 triangular lattice, y= 0.7800001708434697
 3 alpha= 46.500000000000000
 ----------------------------------------------------------------------
 Symbolic Z-matrix:
 Charge =  0 Multiplicity = 3

                         Standard orientation:
 ---------------------------------------------------------------------
 Center     Atomic      Atomic             Coordinates (Angstroms)
 Number     Number       Type             X           Y           Z
 ---------------------------------------------------------------------
      1          1           0        2.147667    0.650208    0.000000
      2          1           0        2.147667   -0.425099    0.000000
      3          1           0        1.073833    0.593931    0.000000
      4          1           0        1.073833   -0.481376    0.000000
      5          1           0        0.000000    0.537654    0.000000
      6          1           0       -0.000000   -0.537654   -0.000000
      7          1           0       -1.073833    0.481376    0.000000
      8          1           0       -1.073833   -0.593931    0.000000
      9          1           0       -2.147667    0.425099    0.000000
     10          1           0       -2.147667   -0.650208    0.000000
 ---------------------------------------------------------------------

 SCF Done:  E(UHF) =  -4.92471782252     A.U. after   21 cycles
 E2 =    -0.7206432616D-01 EUMP2 =    -0.49967821486803D+01

 The electronic state is 3-BU.
 Alpha  occ. eigenvalues --   -0.90477  -0.81636  -0.57750  -0.48868  -0.37159
 Alpha  occ. eigenvalues --   -0.34708
 Alpha virt. eigenvalues --    0.14625   0.31160   0.43836   0.87959
  Beta  occ. eigenvalues --   -0.84526  -0.66438  -0.49268  -0.40829
  Beta virt. eigenvalues --    0.02773   0.04901   0.22907   0.40496   0.59348
  Beta virt. eigenvalues --    0.94432

 Mulliken charges and spin densities:
               1          2
     1  H    0.024542   0.314503
     2  H    0.026222   0.269477
     3  H   -0.023189   0.354846
     4  H   -0.025312   0.368701
     5  H   -0.002263  -0.307527
     6  H   -0.002263  -0.307527
     7  H   -0.025312   0.368701
     8  H   -0.023189   0.354846
     9  H    0.026222   0.269477
    10  H    0.024542   0.314503
 Sum of Mulliken charges =  -0.00000   2.00000

 Dipole moment (field-independent basis, Debye):
    X=              0.0000    Y=              0.0000    Z=              0.0000  Tot=              0.0000
 Quadrupole moment (field-independent basis, Debye-Ang):
   XX=            -13.3505   YY=            -15.3203   ZZ=            -12.8507
   XY=              0.1194   XZ=              0.0000   YZ=             -0.0000

 Normal termination of Gaussian 09 at Thu Feb 23 13:05:54 2017.
