 Gaussian 09, Revision E.01,
 Gaussian 09:  ES64L-G09RevE.01 30-Nov-2015

 ----------------------------------------------------------------------
 #uhf/gen scf(tight,novaracc,noincfock,fulldiag, ) stable(crhf) guess=m
 ix geom=nocrowd test
 ----------------------------------------------------------------------

 hf stability analysis of h10 triangular lattice, y= 1.2594669489559134
  alpha= 70.000000000000000
 ----------------------------------------------------------------------
 Symbolic Z-matrix:
 Charge =  0 Multiplicity = 3

                         Standard orientation:
 ---------------------------------------------------------------------
 Center     Atomic      Atomic             Coordinates (Angstroms)
 Number     Number       Type             X           Y           Z
 ---------------------------------------------------------------------
      1          1           0        1.723052    2.723602   -0.000000
      2          1           0        1.723052    1.383305   -0.000000
      3          1           0        0.861526    1.696875   -0.000000
      4          1           0        0.861526    0.356578    0.000000
      5          1           0        0.000000    0.670148   -0.000000
      6          1           0       -0.000000   -0.670148   -0.000000
      7          1           0       -0.861526   -0.356578    0.000000
      8          1           0       -0.861526   -1.696875   -0.000000
      9          1           0       -1.723052   -1.383305    0.000000
     10          1           0       -1.723052   -2.723602   -0.000000
 ---------------------------------------------------------------------

 SCF Done:  E(UHF) =  -4.84835733513     A.U. after   35 cycles
 E2 =    -0.5967618290D-01 EUMP2 =    -0.49080335180305D+01

 Unable to determine electronic state:  partially filled degenerate orbitals.
 Alpha  occ. eigenvalues --   -0.84999  -0.75214  -0.62009  -0.44553  -0.30437
 Alpha  occ. eigenvalues --   -0.25309
 Alpha virt. eigenvalues --    0.13784   0.17287   0.34648   0.53508
  Beta  occ. eigenvalues --   -0.75197  -0.69081  -0.52969  -0.35399
  Beta virt. eigenvalues --    0.07327   0.12529   0.23653   0.26878   0.45518
  Beta virt. eigenvalues --    0.66682

 Mulliken charges and spin densities:
               1          2
     1  H   -0.070687   0.860193
     2  H   -0.056101   0.422914
     3  H    0.112222  -0.285530
     4  H    0.054488  -0.081524
     5  H   -0.054091   0.335140
     6  H   -0.020295   0.474586
     7  H   -0.091582   0.404565
     8  H    0.063636   0.132016
     9  H    0.093500   0.329911
    10  H   -0.031090  -0.592271
 Sum of Mulliken charges =   0.00000   2.00000

 Dipole moment (field-independent basis, Debye):
    X=             -0.7603    Y=             -0.9746    Z=              0.0000  Tot=              1.2361
 Quadrupole moment (field-independent basis, Debye-Ang):
   XX=            -14.3329   YY=            -17.1077   ZZ=            -12.8350
   XY=             -2.2422   XZ=              0.0000   YZ=              0.0000

 Normal termination of Gaussian 09 at Thu Feb 23 13:11:19 2017.
