 Gaussian 09, Revision E.01,
 Gaussian 09:  ES64L-G09RevE.01 30-Nov-2015

 ----------------------------------------------------------------------
 #uhf/gen scf(tight,novaracc,noincfock,fulldiag, ) stable(crhf) guess=m
 ix geom=nocrowd test
 ----------------------------------------------------------------------

 hf stability analysis of h10 triangular lattice, y= 0.5394520384962004
 9 alpha= 26.750000000000000
 ----------------------------------------------------------------------
 Symbolic Z-matrix:
 Charge =  0 Multiplicity = 3

                         Standard orientation:
 ---------------------------------------------------------------------
 Center     Atomic      Atomic             Coordinates (Angstroms)
 Number     Number       Type             X           Y           Z
 ---------------------------------------------------------------------
      1          1           0        1.926877   -0.826554    0.000000
      2          1           0        1.926877   -2.025074    0.000000
      3          1           0        0.963439   -0.113647    0.000000
      4          1           0        0.963439   -1.312167    0.000000
      5          1           0       -0.000000    0.599260   -0.000000
      6          1           0       -0.000000   -0.599260    0.000000
      7          1           0       -0.963439    1.312167   -0.000000
      8          1           0       -0.963439    0.113647   -0.000000
      9          1           0       -1.926877    2.025074   -0.000000
     10          1           0       -1.926877    0.826554   -0.000000
 ---------------------------------------------------------------------

 SCF Done:  E(UHF) =  -4.85547935577     A.U. after   58 cycles
 E2 =    -0.6442976210D-01 EUMP2 =    -0.49199091178690D+01

 The electronic state is 3-BU.
 Alpha  occ. eigenvalues --   -0.88076  -0.77899  -0.61359  -0.40891  -0.37703
 Alpha  occ. eigenvalues --   -0.29355
 Alpha virt. eigenvalues --    0.15459   0.17902   0.41793   0.52684
  Beta  occ. eigenvalues --   -0.81725  -0.70385  -0.50911  -0.33018
  Beta virt. eigenvalues --    0.01859   0.10400   0.23591   0.31617   0.49950
  Beta virt. eigenvalues --    0.58934

 Mulliken charges and spin densities:
               1          2
     1  H    0.063894   0.471187
     2  H   -0.090268   0.418671
     3  H   -0.123081  -0.249717
     4  H    0.108573  -0.089109
     5  H    0.040883   0.448968
     6  H    0.040883   0.448968
     7  H    0.108573  -0.089109
     8  H   -0.123081  -0.249717
     9  H   -0.090268   0.418671
    10  H    0.063894   0.471187
 Sum of Mulliken charges =   0.00000   2.00000

 Dipole moment (field-independent basis, Debye):
    X=             -0.0000    Y=              0.0000    Z=             -0.0000  Tot=              0.0000
 Quadrupole moment (field-independent basis, Debye-Ang):
   XX=            -15.4372   YY=            -16.9721   ZZ=            -12.9235
   XY=              1.4742   XZ=             -0.0000   YZ=              0.0000

 Normal termination of Gaussian 09 at Thu Feb 23 13:01:16 2017.
