 Gaussian 09, Revision E.01,
 Gaussian 09:  ES64L-G09RevE.01 30-Nov-2015

 ----------------------------------------------------------------------
 #uhf/gen scf(tight,novaracc,noincfock,fulldiag, ) stable(crhf) guess=m
 ix geom=nocrowd test
 ----------------------------------------------------------------------

 hf stability analysis of h10 triangular lattice, y= 0.6746452920691223
 8 alpha= 38.250000000000000
 ----------------------------------------------------------------------
 Symbolic Z-matrix:
 Charge =  0 Multiplicity = 3

                         Standard orientation:
 ---------------------------------------------------------------------
 Center     Atomic      Atomic             Coordinates (Angstroms)
 Number     Number       Type             X           Y           Z
 ---------------------------------------------------------------------
      1          1           0        2.119241    0.036080   -0.000000
      2          1           0        2.119241   -1.053650    0.000000
      3          1           0        1.059621    0.290473   -0.000000
      4          1           0        1.059621   -0.799257    0.000000
      5          1           0        0.000000    0.544865   -0.000000
      6          1           0       -0.000000   -0.544865    0.000000
      7          1           0       -1.059621    0.799257   -0.000000
      8          1           0       -1.059621   -0.290473    0.000000
      9          1           0       -2.119241    1.053650    0.000000
     10          1           0       -2.119241   -0.036080    0.000000
 ---------------------------------------------------------------------

 SCF Done:  E(UHF) =  -4.91817466287     A.U. after   22 cycles
 E2 =    -0.7324966660D-01 EUMP2 =    -0.49914243294637D+01

 The electronic state is 3-BU.
 Alpha  occ. eigenvalues --   -0.89943  -0.81223  -0.58219  -0.47743  -0.35828
 Alpha  occ. eigenvalues --   -0.35263
 Alpha virt. eigenvalues --    0.15337   0.27303   0.46038   0.79848
  Beta  occ. eigenvalues --   -0.84018  -0.66736  -0.49139  -0.39366
  Beta virt. eigenvalues --    0.03248   0.03599   0.24262   0.38251   0.59307
  Beta virt. eigenvalues --    0.86445

 Mulliken charges and spin densities:
               1          2
     1  H    0.024272   0.222636
     2  H    0.023863   0.391163
     3  H   -0.017519   0.349597
     4  H   -0.008962   0.292597
     5  H   -0.021654  -0.255992
     6  H   -0.021654  -0.255992
     7  H   -0.008962   0.292597
     8  H   -0.017519   0.349597
     9  H    0.023863   0.391163
    10  H    0.024272   0.222636
 Sum of Mulliken charges =   0.00000   2.00000

 Dipole moment (field-independent basis, Debye):
    X=             -0.0000    Y=              0.0000    Z=              0.0000  Tot=              0.0000
 Quadrupole moment (field-independent basis, Debye-Ang):
   XX=            -13.1433   YY=            -15.2795   ZZ=            -12.8790
   XY=             -0.6853   XZ=              0.0000   YZ=              0.0000

 Normal termination of Gaussian 09 at Thu Feb 23 13:04:00 2017.
