 Gaussian 09, Revision E.01,
 Gaussian 09:  ES64L-G09RevE.01 30-Nov-2015

 ----------------------------------------------------------------------
 #uhf/gen scf(tight,novaracc,noincfock,fulldiag, ) stable(crhf) guess=m
 ix geom=nocrowd test
 ----------------------------------------------------------------------

 hf stability analysis of h10 triangular lattice, y= 1.2106565115415191
  alpha= 68.500000000000000
 ----------------------------------------------------------------------
 Symbolic Z-matrix:
 Charge =  0 Multiplicity = 3

                         Standard orientation:
 ---------------------------------------------------------------------
 Center     Atomic      Atomic             Coordinates (Angstroms)
 Number     Number       Type             X           Y           Z
 ---------------------------------------------------------------------
      1          1           0        1.774828    2.553869   -0.000000
      2          1           0        1.774828    1.252672   -0.000000
      3          1           0        0.887414    1.602234   -0.000000
      4          1           0        0.887414    0.301037   -0.000000
      5          1           0        0.000000    0.650598   -0.000000
      6          1           0       -0.000000   -0.650598   -0.000000
      7          1           0       -0.887414   -0.301037    0.000000
      8          1           0       -0.887414   -1.602234   -0.000000
      9          1           0       -1.774828   -1.252672    0.000000
     10          1           0       -1.774828   -2.553869   -0.000000
 ---------------------------------------------------------------------

 SCF Done:  E(UHF) =  -4.87637518051     A.U. after   21 cycles
 E2 =    -0.4209022999D-01 EUMP2 =    -0.49184654104982D+01

 The electronic state is 3-BU.
 Alpha  occ. eigenvalues --   -0.83844  -0.74970  -0.62584  -0.44806  -0.32306
 Alpha  occ. eigenvalues --   -0.31561
 Alpha virt. eigenvalues --    0.17255   0.17915   0.34702   0.57448
  Beta  occ. eigenvalues --   -0.80418  -0.71526  -0.53442  -0.35972
  Beta virt. eigenvalues --    0.08449   0.17419   0.21582   0.28111   0.43585
  Beta virt. eigenvalues --    0.59877

 Mulliken charges and spin densities:
               1          2
     1  H   -0.088492   0.746886
     2  H   -0.001381   0.457640
     3  H    0.116791  -0.302449
     4  H   -0.002319  -0.495415
     5  H   -0.024599   0.593339
     6  H   -0.024599   0.593339
     7  H   -0.002319  -0.495415
     8  H    0.116791  -0.302449
     9  H   -0.001381   0.457640
    10  H   -0.088492   0.746886
 Sum of Mulliken charges =   0.00000   2.00000

 Dipole moment (field-independent basis, Debye):
    X=              0.0000    Y=              0.0000    Z=              0.0000  Tot=              0.0000
 Quadrupole moment (field-independent basis, Debye-Ang):
   XX=            -15.6954   YY=            -19.0265   ZZ=            -12.7854
   XY=             -3.8039   XZ=              0.0000   YZ=             -0.0000

 Normal termination of Gaussian 09 at Thu Feb 23 13:10:58 2017.
