 Gaussian 09, Revision E.01,
 Gaussian 09:  ES64L-G09RevE.01 30-Nov-2015

 ----------------------------------------------------------------------
 #uhf/gen scf(tight,novaracc,noincfock,fulldiag, ) stable(crhf) guess=m
 ix geom=nocrowd test
 ----------------------------------------------------------------------

 hf stability analysis of h10 triangular lattice, y= 0.4950461160480687
 5 alpha= 23.000000000000000
 ----------------------------------------------------------------------
 Symbolic Z-matrix:
 Charge =  0 Multiplicity = 3

                         Standard orientation:
 ---------------------------------------------------------------------
 Center     Atomic      Atomic             Coordinates (Angstroms)
 Number     Number       Type             X           Y           Z
 ---------------------------------------------------------------------
      1          1           0        1.822769   -1.126741    0.000000
      2          1           0        1.822769   -2.393715    0.000000
      3          1           0        0.911385   -0.246627    0.000000
      4          1           0        0.911385   -1.513601    0.000000
      5          1           0        0.000000    0.633487    0.000000
      6          1           0       -0.000000   -0.633487    0.000000
      7          1           0       -0.911385    1.513601    0.000000
      8          1           0       -0.911385    0.246627    0.000000
      9          1           0       -1.822769    2.393715    0.000000
     10          1           0       -1.822769    1.126741    0.000000
 ---------------------------------------------------------------------

 SCF Done:  E(UHF) =  -4.86085490754     A.U. after   23 cycles
 E2 =    -0.4749243352D-01 EUMP2 =    -0.49083473410616D+01

 The electronic state is 3-BU.
 Alpha  occ. eigenvalues --   -0.85347  -0.75888  -0.62411  -0.43086  -0.34519
 Alpha  occ. eigenvalues --   -0.30117
 Alpha virt. eigenvalues --    0.16246   0.18443   0.34727   0.55924
  Beta  occ. eigenvalues --   -0.81013  -0.71591  -0.52657  -0.34639
  Beta virt. eigenvalues --    0.06260   0.15167   0.21615   0.29938   0.43645
  Beta virt. eigenvalues --    0.59397

 Mulliken charges and spin densities:
               1          2
     1  H    0.021687   0.477138
     2  H   -0.097462   0.659150
     3  H   -0.041312  -0.439480
     4  H    0.122735  -0.273256
     5  H   -0.005649   0.576449
     6  H   -0.005649   0.576449
     7  H    0.122735  -0.273256
     8  H   -0.041312  -0.439480
     9  H   -0.097462   0.659150
    10  H    0.021687   0.477138
 Sum of Mulliken charges =   0.00000   2.00000

 Dipole moment (field-independent basis, Debye):
    X=              0.0000    Y=             -0.0000    Z=             -0.0000  Tot=              0.0000
 Quadrupole moment (field-independent basis, Debye-Ang):
   XX=            -15.8184   YY=            -18.4760   ZZ=            -12.8364
   XY=              3.1876   XZ=              0.0000   YZ=             -0.0000

 Normal termination of Gaussian 09 at Thu Feb 23 13:00:24 2017.
