 Gaussian 09, Revision E.01,
 Gaussian 09:  ES64L-G09RevE.01 30-Nov-2015

 ----------------------------------------------------------------------
 #uhf/gen scf(tight,novaracc,noincfock,fulldiag, ) stable(crhf) guess=m
 ix geom=nocrowd test
 ----------------------------------------------------------------------

 hf stability analysis of h10 triangular lattice, y= 0.9295513923648614
 0 alpha= 56.250000000000000
 ----------------------------------------------------------------------
 Symbolic Z-matrix:
 Charge =  0 Multiplicity = 3

                         Standard orientation:
 ---------------------------------------------------------------------
 Center     Atomic      Atomic             Coordinates (Angstroms)
 Number     Number       Type             X           Y           Z
 ---------------------------------------------------------------------
      1          1           0        2.065724    1.414632    0.000000
      2          1           0        2.065724    0.296670    0.000000
      3          1           0        1.032862    0.986806    0.000000
      4          1           0        1.032862   -0.131155    0.000000
      5          1           0        0.000000    0.558981    0.000000
      6          1           0       -0.000000   -0.558981    0.000000
      7          1           0       -1.032862    0.131155   -0.000000
      8          1           0       -1.032862   -0.986806   -0.000000
      9          1           0       -2.065724   -0.296670   -0.000000
     10          1           0       -2.065724   -1.414632   -0.000000
 ---------------------------------------------------------------------

 SCF Done:  E(UHF) =  -4.90008766084     A.U. after   25 cycles
 E2 =    -0.7541709004D-01 EUMP2 =    -0.49755047508866D+01

 The electronic state is 3-BU.
 Alpha  occ. eigenvalues --   -0.88899  -0.80398  -0.58966  -0.45487  -0.36067
 Alpha  occ. eigenvalues --   -0.33568
 Alpha virt. eigenvalues --    0.16274   0.22015   0.48665   0.67164
  Beta  occ. eigenvalues --   -0.83152  -0.67179  -0.48884  -0.36696
  Beta virt. eigenvalues --    0.01564   0.04382   0.26601   0.34006   0.59598
  Beta virt. eigenvalues --    0.73717

 Mulliken charges and spin densities:
               1          2
     1  H    0.026961   0.446677
     2  H    0.017373   0.241657
     3  H    0.010236   0.195859
     4  H   -0.009630   0.269963
     5  H   -0.044940  -0.154157
     6  H   -0.044940  -0.154157
     7  H   -0.009630   0.269963
     8  H    0.010236   0.195859
     9  H    0.017373   0.241657
    10  H    0.026961   0.446677
 Sum of Mulliken charges =  -0.00000   2.00000

 Dipole moment (field-independent basis, Debye):
    X=             -0.0000    Y=              0.0000    Z=             -0.0000  Tot=              0.0000
 Quadrupole moment (field-independent basis, Debye-Ang):
   XX=            -12.9115   YY=            -15.0088   ZZ=            -12.9274
   XY=              1.4351   XZ=              0.0000   YZ=              0.0000

 Normal termination of Gaussian 09 at Thu Feb 23 13:08:09 2017.
