 Gaussian 09, Revision E.01,
 Gaussian 09:  ES64L-G09RevE.01 30-Nov-2015

 ----------------------------------------------------------------------
 #uhf/gen scf(tight,novaracc,noincfock,fulldiag, ) stable(crhf) guess=m
 ix geom=nocrowd test
 ----------------------------------------------------------------------

 hf stability analysis of h10 triangular lattice, y= 1.1592321887657087
  alpha= 66.750000000000000
 ----------------------------------------------------------------------
 Symbolic Z-matrix:
 Charge =  0 Multiplicity = 3

                         Standard orientation:
 ---------------------------------------------------------------------
 Center     Atomic      Atomic             Coordinates (Angstroms)
 Number     Number       Type             X           Y           Z
 ---------------------------------------------------------------------
      1          1           0        1.830399    2.367830    0.000000
      2          1           0        1.830399    1.106138    0.000000
      3          1           0        0.915200    1.499338    0.000000
      4          1           0        0.915200    0.237646    0.000000
      5          1           0        0.000000    0.630846    0.000000
      6          1           0       -0.000000   -0.630846    0.000000
      7          1           0       -0.915200   -0.237646    0.000000
      8          1           0       -0.915200   -1.499338    0.000000
      9          1           0       -1.830399   -1.106138    0.000000
     10          1           0       -1.830399   -2.367830    0.000000
 ---------------------------------------------------------------------

 SCF Done:  E(UHF) =  -4.85918941943     A.U. after   63 cycles
 E2 =    -0.4856777553D-01 EUMP2 =    -0.49077571949528D+01

 The electronic state is 3-BU.
 Alpha  occ. eigenvalues --   -0.85576  -0.76037  -0.62369  -0.42801  -0.34899
 Alpha  occ. eigenvalues --   -0.29937
 Alpha virt. eigenvalues --    0.16051   0.18557   0.34910   0.55671
  Beta  occ. eigenvalues --   -0.81092  -0.71568  -0.52524  -0.34451
  Beta virt. eigenvalues --    0.05914   0.14816   0.21645   0.30210   0.43767
  Beta virt. eigenvalues --    0.59340

 Mulliken charges and spin densities:
               1          2
     1  H   -0.098425   0.643276
     2  H    0.025213   0.479490
     3  H    0.123282  -0.265948
     4  H   -0.047625  -0.428457
     5  H   -0.002445   0.571639
     6  H   -0.002445   0.571639
     7  H   -0.047625  -0.428457
     8  H    0.123282  -0.265948
     9  H    0.025213   0.479490
    10  H   -0.098425   0.643276
 Sum of Mulliken charges =  -0.00000   2.00000

 Dipole moment (field-independent basis, Debye):
    X=              0.0000    Y=              0.0000    Z=             -0.0000  Tot=              0.0000
 Quadrupole moment (field-independent basis, Debye-Ang):
   XX=            -15.8250   YY=            -18.3822   ZZ=            -12.8440
   XY=             -3.0826   XZ=              0.0000   YZ=              0.0000

 Normal termination of Gaussian 09 at Thu Feb 23 13:10:34 2017.
