 Gaussian 09, Revision E.01,
 Gaussian 09:  ES64L-G09RevE.01 30-Nov-2015

 ----------------------------------------------------------------------
 #uhf/gen scf(tight,novaracc,noincfock,fulldiag, ) stable(crhf) guess=m
 ix geom=nocrowd test
 ----------------------------------------------------------------------

 hf stability analysis of h10 triangular lattice, y= 1.3232044396011293
  alpha= 71.750000000000000
 ----------------------------------------------------------------------
 Symbolic Z-matrix:
 Charge =  0 Multiplicity = 3

                         Standard orientation:
 ---------------------------------------------------------------------
 Center     Atomic      Atomic             Coordinates (Angstroms)
 Number     Number       Type             X           Y           Z
 ---------------------------------------------------------------------
      1          1           0        1.657519    2.936652   -0.000000
      2          1           0        1.657519    1.543364   -0.000000
      3          1           0        0.828759    1.816648   -0.000000
      4          1           0        0.828759    0.423360   -0.000000
      5          1           0        0.000000    0.696644   -0.000000
      6          1           0       -0.000000   -0.696644   -0.000000
      7          1           0       -0.828759   -0.423360   -0.000000
      8          1           0       -0.828759   -1.816648   -0.000000
      9          1           0       -1.657519   -1.543364   -0.000000
     10          1           0       -1.657519   -2.936652   -0.000000
 ---------------------------------------------------------------------

 SCF Done:  E(UHF) =  -4.95971655476     A.U. after   22 cycles
 E2 =    -0.4636809743D-01 EUMP2 =    -0.50060846521912D+01

 The electronic state is 3-BU.
 Alpha  occ. eigenvalues --   -0.79840  -0.72856  -0.62561  -0.48374  -0.35794
 Alpha  occ. eigenvalues --   -0.29790
 Alpha virt. eigenvalues --    0.14578   0.23863   0.39761   0.60372
  Beta  occ. eigenvalues --   -0.78093  -0.69902  -0.54716  -0.38476
  Beta virt. eigenvalues --    0.13268   0.21063   0.24259   0.24444   0.45224
  Beta virt. eigenvalues --    0.61640

 Mulliken charges and spin densities:
               1          2
     1  H   -0.069210   0.892882
     2  H   -0.031409   0.313204
     3  H    0.087303  -0.233375
     4  H    0.042180  -0.415283
     5  H   -0.028864   0.442572
     6  H   -0.028864   0.442572
     7  H    0.042180  -0.415283
     8  H    0.087303  -0.233375
     9  H   -0.031409   0.313204
    10  H   -0.069210   0.892882
 Sum of Mulliken charges =   0.00000   2.00000

 Dipole moment (field-independent basis, Debye):
    X=             -0.0000    Y=              0.0000    Z=              0.0000  Tot=              0.0000
 Quadrupole moment (field-independent basis, Debye-Ang):
   XX=            -14.7967   YY=            -20.9408   ZZ=            -12.6506
   XY=             -5.5211   XZ=             -0.0000   YZ=             -0.0000

 Normal termination of Gaussian 09 at Thu Feb 23 13:11:42 2017.
