 Gaussian 09, Revision E.01,
 Gaussian 09:  ES64L-G09RevE.01 30-Nov-2015

 ----------------------------------------------------------------------
 #uhf/gen scf(tight,novaracc,noincfock,fulldiag, ) stable(crhf) guess=m
 ix geom=nocrowd test
 ----------------------------------------------------------------------

 hf stability analysis of h10 triangular lattice, y= 0.7664958762004193
 7 alpha= 45.500000000000000
 ----------------------------------------------------------------------
 Symbolic Z-matrix:
 Charge =  0 Multiplicity = 3

                         Standard orientation:
 ---------------------------------------------------------------------
 Center     Atomic      Atomic             Coordinates (Angstroms)
 Number     Number       Type             X           Y           Z
 ---------------------------------------------------------------------
      1          1           0        2.148976    0.574836    0.000000
      2          1           0        2.148976   -0.499815    0.000000
      3          1           0        1.074488    0.556081    0.000000
      4          1           0        1.074488   -0.518571    0.000000
      5          1           0        0.000000    0.537326    0.000000
      6          1           0       -0.000000   -0.537326    0.000000
      7          1           0       -1.074488    0.518571    0.000000
      8          1           0       -1.074488   -0.556081    0.000000
      9          1           0       -2.148976    0.499815    0.000000
     10          1           0       -2.148976   -0.574836    0.000000
 ---------------------------------------------------------------------

 SCF Done:  E(UHF) =  -4.92496212658     A.U. after   22 cycles
 E2 =    -0.7201004517D-01 EUMP2 =    -0.49969721717441D+01

 The electronic state is 3-BU.
 Alpha  occ. eigenvalues --   -0.90501  -0.81655  -0.57725  -0.48918  -0.37223
 Alpha  occ. eigenvalues --   -0.34678
 Alpha virt. eigenvalues --    0.14588   0.31375   0.43701   0.88362
  Beta  occ. eigenvalues --   -0.84550  -0.66422  -0.49274  -0.40897
  Beta virt. eigenvalues --    0.02755   0.04965   0.22842   0.40596   0.59357
  Beta virt. eigenvalues --    0.94825

 Mulliken charges and spin densities:
               1          2
     1  H    0.025165   0.298935
     2  H    0.025755   0.283785
     3  H   -0.024494   0.361331
     4  H   -0.025208   0.365968
     5  H   -0.001218  -0.310018
     6  H   -0.001218  -0.310018
     7  H   -0.025208   0.365968
     8  H   -0.024494   0.361331
     9  H    0.025755   0.283785
    10  H    0.025165   0.298935
 Sum of Mulliken charges =  -0.00000   2.00000

 Dipole moment (field-independent basis, Debye):
    X=              0.0000    Y=             -0.0000    Z=              0.0000  Tot=              0.0000
 Quadrupole moment (field-independent basis, Debye-Ang):
   XX=            -13.3614   YY=            -15.3193   ZZ=            -12.8494
   XY=              0.0392   XZ=              0.0000   YZ=              0.0000

 Normal termination of Gaussian 09 at Thu Feb 23 13:05:40 2017.
