 Gaussian 09, Revision E.01,
 Gaussian 09:  ES64L-G09RevE.01 30-Nov-2015

 ----------------------------------------------------------------------
 #uhf/gen scf(tight,novaracc,noincfock,fulldiag, ) stable(crhf) guess=m
 ix geom=nocrowd test
 ----------------------------------------------------------------------

 hf stability analysis of h10 triangular lattice, y= 0.5715322184328752
 7 alpha= 29.500000000000000
 ----------------------------------------------------------------------
 Symbolic Z-matrix:
 Charge =  0 Multiplicity = 3

                         Standard orientation:
 ---------------------------------------------------------------------
 Center     Atomic      Atomic             Coordinates (Angstroms)
 Number     Number       Type             X           Y           Z
 ---------------------------------------------------------------------
      1          1           0        1.989745   -0.615234    0.000000
      2          1           0        1.989745   -1.775885    0.000000
      3          1           0        0.994873   -0.017454    0.000000
      4          1           0        0.994873   -1.178106    0.000000
      5          1           0        0.000000    0.580326    0.000000
      6          1           0       -0.000000   -0.580326    0.000000
      7          1           0       -0.994873    1.178106   -0.000000
      8          1           0       -0.994873    0.017454    0.000000
      9          1           0       -1.989745    1.775885   -0.000000
     10          1           0       -1.989745    0.615234    0.000000
 ---------------------------------------------------------------------

 SCF Done:  E(UHF) =  -4.86857665931     A.U. after   24 cycles
 E2 =    -0.7207547034D-01 EUMP2 =    -0.49406521296490D+01

 The electronic state is 3-BU.
 Alpha  occ. eigenvalues --   -0.88115  -0.78916  -0.60599  -0.41916  -0.37509
 Alpha  occ. eigenvalues --   -0.31138
 Alpha virt. eigenvalues --    0.16821   0.17220   0.51536   0.51730
  Beta  occ. eigenvalues --   -0.82482  -0.68809  -0.49112  -0.33850
  Beta virt. eigenvalues --    0.00254   0.06708   0.27972   0.30058   0.58981
  Beta virt. eigenvalues --    0.59163

 Mulliken charges and spin densities:
               1          2
     1  H    0.053713   0.406794
     2  H   -0.029119   0.456782
     3  H   -0.089017  -0.069685
     4  H    0.057422   0.005025
     5  H    0.007002   0.201084
     6  H    0.007002   0.201084
     7  H    0.057422   0.005025
     8  H   -0.089017  -0.069685
     9  H   -0.029119   0.456782
    10  H    0.053713   0.406794
 Sum of Mulliken charges =  -0.00000   2.00000

 Dipole moment (field-independent basis, Debye):
    X=             -0.0000    Y=             -0.0000    Z=             -0.0000  Tot=              0.0000
 Quadrupole moment (field-independent basis, Debye-Ang):
   XX=            -13.7630   YY=            -15.6404   ZZ=            -12.9553
   XY=             -0.6547   XZ=              0.0000   YZ=              0.0000

 Normal termination of Gaussian 09 at Thu Feb 23 13:01:56 2017.
