 Gaussian 09, Revision E.01,
 Gaussian 09:  ES64L-G09RevE.01 30-Nov-2015

 ----------------------------------------------------------------------
 #uhf/gen scf(tight,novaracc,noincfock,fulldiag, ) stable(crhf) guess=m
 ix geom=nocrowd test
 ----------------------------------------------------------------------

 hf stability analysis of h10 triangular lattice, y= 0.8519558688473642
 9 alpha= 51.500000000000000
 ----------------------------------------------------------------------
 Symbolic Z-matrix:
 Charge =  0 Multiplicity = 3

                         Standard orientation:
 ---------------------------------------------------------------------
 Center     Atomic      Atomic             Coordinates (Angstroms)
 Number     Number       Type             X           Y           Z
 ---------------------------------------------------------------------
      1          1           0        2.121420    1.034074   -0.000000
      2          1           0        2.121420   -0.054537   -0.000000
      3          1           0        1.060710    0.789190   -0.000000
      4          1           0        1.060710   -0.299421   -0.000000
      5          1           0       -0.000000    0.544306    0.000000
      6          1           0       -0.000000   -0.544306    0.000000
      7          1           0       -1.060710    0.299421   -0.000000
      8          1           0       -1.060710   -0.789190    0.000000
      9          1           0       -2.121420    0.054537   -0.000000
     10          1           0       -2.121420   -1.034074    0.000000
 ---------------------------------------------------------------------

 SCF Done:  E(UHF) =  -4.91875699783     A.U. after   22 cycles
 E2 =    -0.7315854663D-01 EUMP2 =    -0.49919155444605D+01

 The electronic state is 3-BU.
 Alpha  occ. eigenvalues --   -0.89985  -0.81255  -0.58187  -0.47831  -0.35927
 Alpha  occ. eigenvalues --   -0.35225
 Alpha virt. eigenvalues --    0.15288   0.27560   0.45902   0.80430
  Beta  occ. eigenvalues --   -0.84056  -0.66716  -0.49148  -0.39477
  Beta virt. eigenvalues --    0.03207   0.03693   0.24161   0.38425   0.59302
  Beta virt. eigenvalues --    0.87022

 Mulliken charges and spin densities:
               1          2
     1  H    0.023735   0.387882
     2  H    0.024567   0.223453
     3  H   -0.009841   0.296618
     4  H   -0.018103   0.351896
     5  H   -0.020358  -0.259848
     6  H   -0.020358  -0.259848
     7  H   -0.018103   0.351896
     8  H   -0.009841   0.296618
     9  H    0.024567   0.223453
    10  H    0.023735   0.387882
 Sum of Mulliken charges =  -0.00000   2.00000

 Dipole moment (field-independent basis, Debye):
    X=             -0.0000    Y=              0.0000    Z=             -0.0000  Tot=              0.0000
 Quadrupole moment (field-independent basis, Debye-Ang):
   XX=            -13.1572   YY=            -15.2862   ZZ=            -12.8769
   XY=              0.6503   XZ=             -0.0000   YZ=              0.0000

 Normal termination of Gaussian 09 at Thu Feb 23 13:07:03 2017.
