 Gaussian 09, Revision E.01,
 Gaussian 09:  ES64L-G09RevE.01 30-Nov-2015

 ----------------------------------------------------------------------
 #uhf/gen scf(tight,novaracc,noincfock,fulldiag, ) stable(crhf) guess=m
 ix geom=nocrowd test
 ----------------------------------------------------------------------

 hf stability analysis of h10 triangular lattice, y= 0.3465386445008242
 8 alpha= 11.750000000000000
 ----------------------------------------------------------------------
 Symbolic Z-matrix:
 Charge =  0 Multiplicity = 3

                         Standard orientation:
 ---------------------------------------------------------------------
 Center     Atomic      Atomic             Coordinates (Angstroms)
 Number     Number       Type             X           Y           Z
 ---------------------------------------------------------------------
      1          1           0        1.357108   -2.270282    0.000000
      2          1           0        1.357108   -3.971989    0.000000
      3          1           0        0.678554   -0.709714    0.000000
      4          1           0        0.678554   -2.411421    0.000000
      5          1           0        0.000000    0.850854   -0.000000
      6          1           0       -0.000000   -0.850854   -0.000000
      7          1           0       -0.678554    2.411421    0.000000
      8          1           0       -0.678554    0.709714    0.000000
      9          1           0       -1.357108    3.971989    0.000000
     10          1           0       -1.357108    2.270282    0.000000
 ---------------------------------------------------------------------

 SCF Done:  E(UHF) =  -5.19745058223     A.U. after   14 cycles
 E2 =    -0.4262526585D-01 EUMP2 =    -0.52400758480708D+01

 The electronic state is 3-BU.
 Alpha  occ. eigenvalues --   -0.74393  -0.70616  -0.63931  -0.55210  -0.45209
 Alpha  occ. eigenvalues --   -0.43685
 Alpha virt. eigenvalues --    0.28956   0.38037   0.52057   0.66173
  Beta  occ. eigenvalues --   -0.73721  -0.68700  -0.60836  -0.51975
  Beta virt. eigenvalues --    0.16680   0.16893   0.29225   0.38589   0.52630
  Beta virt. eigenvalues --    0.66466

 Mulliken charges and spin densities:
               1          2
     1  H   -0.003770   0.004551
     2  H   -0.003245   0.996499
     3  H    0.000133  -0.002359
     4  H    0.005019  -0.003078
     5  H    0.001864   0.004387
     6  H    0.001864   0.004387
     7  H    0.005019  -0.003078
     8  H    0.000133  -0.002359
     9  H   -0.003245   0.996499
    10  H   -0.003770   0.004551
 Sum of Mulliken charges =  -0.00000   2.00000

 Dipole moment (field-independent basis, Debye):
    X=             -0.0000    Y=              0.0000    Z=             -0.0000  Tot=              0.0000
 Quadrupole moment (field-independent basis, Debye-Ang):
   XX=            -12.1854   YY=            -17.9501   ZZ=            -12.9484
   XY=              2.2119   XZ=              0.0000   YZ=             -0.0000

 Normal termination of Gaussian 09 at Thu Feb 23 12:57:51 2017.
