 Gaussian 09, Revision E.01,
 Gaussian 09:  ES64L-G09RevE.01 30-Nov-2015

 ----------------------------------------------------------------------
 #uhf/gen scf(tight,novaracc,noincfock,fulldiag, ) stable(crhf) guess=m
 ix geom=nocrowd test
 ----------------------------------------------------------------------

 hf stability analysis of h10 triangular lattice, y= 0.3577645550249273
 8 alpha= 12.500000000000000
 ----------------------------------------------------------------------
 Symbolic Z-matrix:
 Charge =  0 Multiplicity = 3

                         Standard orientation:
 ---------------------------------------------------------------------
 Center     Atomic      Atomic             Coordinates (Angstroms)
 Number     Number       Type             X           Y           Z
 ---------------------------------------------------------------------
      1          1           0        1.397136   -2.169692   -0.000000
      2          1           0        1.397136   -3.822645   -0.000000
      3          1           0        0.698568   -0.671608   -0.000000
      4          1           0        0.698568   -2.324561   -0.000000
      5          1           0        0.000000    0.826477    0.000000
      6          1           0       -0.000000   -0.826477   -0.000000
      7          1           0       -0.698568    2.324561    0.000000
      8          1           0       -0.698568    0.671608   -0.000000
      9          1           0       -1.397136    3.822645    0.000000
     10          1           0       -1.397136    2.169692   -0.000000
 ---------------------------------------------------------------------

 SCF Done:  E(UHF) =  -5.18845520768     A.U. after   14 cycles
 E2 =    -0.4477780407D-01 EUMP2 =    -0.52332330117510D+01

 The electronic state is 3-BU.
 Alpha  occ. eigenvalues --   -0.74777  -0.70716  -0.63518  -0.54115  -0.44207
 Alpha  occ. eigenvalues --   -0.42018
 Alpha virt. eigenvalues --    0.26629   0.36073   0.50754   0.65633
  Beta  occ. eigenvalues --   -0.74005  -0.68530  -0.59867  -0.49892
  Beta virt. eigenvalues --    0.17286   0.17585   0.26975   0.36731   0.51449
  Beta virt. eigenvalues --    0.66003

 Mulliken charges and spin densities:
               1          2
     1  H   -0.004382   0.008761
     2  H   -0.007593   0.992001
     3  H    0.000613  -0.004041
     4  H    0.008975  -0.003775
     5  H    0.002387   0.007053
     6  H    0.002387   0.007053
     7  H    0.008975  -0.003775
     8  H    0.000613  -0.004041
     9  H   -0.007593   0.992001
    10  H   -0.004382   0.008761
 Sum of Mulliken charges =   0.00000   2.00000

 Dipole moment (field-independent basis, Debye):
    X=              0.0000    Y=             -0.0000    Z=              0.0000  Tot=              0.0000
 Quadrupole moment (field-independent basis, Debye-Ang):
   XX=            -12.2691   YY=            -18.4674   ZZ=            -12.8904
   XY=              2.6226   XZ=              0.0000   YZ=             -0.0000

 Normal termination of Gaussian 09 at Thu Feb 23 12:58:01 2017.
