 Gaussian 09, Revision E.01,
 Gaussian 09:  ES64L-G09RevE.01 30-Nov-2015

 ----------------------------------------------------------------------
 #uhf/gen scf(tight,novaracc,noincfock,fulldiag, ) stable(crhf) guess=m
 ix geom=nocrowd test
 ----------------------------------------------------------------------

 hf stability analysis of h10 triangular lattice, y= 0.6536181925990977
 0 alpha= 36.500000000000000
 ----------------------------------------------------------------------
 Symbolic Z-matrix:
 Charge =  0 Multiplicity = 3

                         Standard orientation:
 ---------------------------------------------------------------------
 Center     Atomic      Atomic             Coordinates (Angstroms)
 Number     Number       Type             X           Y           Z
 ---------------------------------------------------------------------
      1          1           0        2.101662   -0.093120    0.000000
      2          1           0        2.101662   -1.191965    0.000000
      3          1           0        1.050831    0.228151    0.000000
      4          1           0        1.050831   -0.870694    0.000000
      5          1           0        0.000000    0.549423    0.000000
      6          1           0       -0.000000   -0.549423    0.000000
      7          1           0       -1.050831    0.870694    0.000000
      8          1           0       -1.050831   -0.228151    0.000000
      9          1           0       -2.101662    1.191965    0.000000
     10          1           0       -2.101662    0.093120    0.000000
 ---------------------------------------------------------------------

 SCF Done:  E(UHF) =  -4.91301170380     A.U. after   23 cycles
 E2 =    -0.7398359806D-01 EUMP2 =    -0.49869953018528D+01

 The electronic state is 3-BU.
 Alpha  occ. eigenvalues --   -0.89603  -0.80960  -0.58472  -0.47020  -0.35552
 Alpha  occ. eigenvalues --   -0.35051
 Alpha virt. eigenvalues --    0.15700   0.25371   0.47027   0.75361
  Beta  occ. eigenvalues --   -0.83717  -0.66886  -0.49059  -0.38475
  Beta virt. eigenvalues --    0.02875   0.03597   0.25056   0.36846   0.59378
  Beta virt. eigenvalues --    0.81971

 Mulliken charges and spin densities:
               1          2
     1  H    0.021713   0.221729
     2  H    0.025178   0.413253
     3  H   -0.013371   0.328649
     4  H   -0.002369   0.261105
     5  H   -0.031151  -0.224736
     6  H   -0.031151  -0.224736
     7  H   -0.002369   0.261105
     8  H   -0.013371   0.328649
     9  H    0.025178   0.413253
    10  H    0.021713   0.221729
 Sum of Mulliken charges =   0.00000   2.00000

 Dipole moment (field-independent basis, Debye):
    X=             -0.0000    Y=              0.0000    Z=              0.0000  Tot=              0.0000
 Quadrupole moment (field-independent basis, Debye-Ang):
   XX=            -13.0428   YY=            -15.2085   ZZ=            -12.8956
   XY=             -0.9558   XZ=             -0.0000   YZ=             -0.0000

 Normal termination of Gaussian 09 at Thu Feb 23 13:03:36 2017.
