 Gaussian 09, Revision E.01,
 Gaussian 09:  ES64L-G09RevE.01 30-Nov-2015

 ----------------------------------------------------------------------
 #uhf/gen scf(tight,novaracc,noincfock,fulldiag, ) stable(crhf) guess=m
 ix geom=nocrowd test
 ----------------------------------------------------------------------

 hf stability analysis of h10 triangular lattice, y= 2.0268354180156947
  alpha= 82.000000000000000
 ----------------------------------------------------------------------
 Symbolic Z-matrix:
 Charge =  0 Multiplicity = 3

                         Standard orientation:
 ---------------------------------------------------------------------
 Center     Atomic      Atomic             Coordinates (Angstroms)
 Number     Number       Type             X           Y           Z
 ---------------------------------------------------------------------
      1          1           0        1.128324    4.958310    0.000000
      2          1           0        1.128324    2.911556    0.000000
      3          1           0        0.564162    2.990844    0.000000
      4          1           0        0.564162    0.944089    0.000000
      5          1           0       -0.000000    1.023377    0.000000
      6          1           0       -0.000000   -1.023377    0.000000
      7          1           0       -0.564162   -0.944089   -0.000000
      8          1           0       -0.564162   -2.990844    0.000000
      9          1           0       -1.128324   -2.911556    0.000000
     10          1           0       -1.128324   -4.958310    0.000000
 ---------------------------------------------------------------------

 SCF Done:  E(UHF) =  -5.06942163332     A.U. after   12 cycles
 E2 =    -0.3256402578D-01 EUMP2 =    -0.51019856590949D+01

 The electronic state is 3-BU.
 Alpha  occ. eigenvalues --   -0.73313  -0.71126  -0.67536  -0.63460  -0.48848
 Alpha  occ. eigenvalues --   -0.48781
 Alpha virt. eigenvalues --    0.43203   0.49938   0.59712   0.69003
  Beta  occ. eigenvalues --   -0.73065  -0.70423  -0.66638  -0.62959
  Beta virt. eigenvalues --    0.14147   0.14167   0.43276   0.50117   0.59893
  Beta virt. eigenvalues --    0.69080

 Mulliken charges and spin densities:
               1          2
     1  H    0.004582   1.004566
     2  H   -0.001775  -0.002162
     3  H   -0.002915  -0.002523
     4  H   -0.000231  -0.000107
     5  H    0.000339   0.000226
     6  H    0.000339   0.000226
     7  H   -0.000231  -0.000107
     8  H   -0.002915  -0.002523
     9  H   -0.001775  -0.002162
    10  H    0.004582   1.004566
 Sum of Mulliken charges =   0.00000   2.00000

 Dipole moment (field-independent basis, Debye):
    X=              0.0000    Y=             -0.0000    Z=              0.0000  Tot=              0.0000
 Quadrupole moment (field-independent basis, Debye-Ang):
   XX=            -12.3257   YY=            -15.6887   ZZ=            -13.2770
   XY=             -0.7513   XZ=              0.0000   YZ=             -0.0000

 Normal termination of Gaussian 09 at Thu Feb 23 13:13:42 2017.
