 Gaussian 09, Revision E.01,
 Gaussian 09:  ES64L-G09RevE.01 30-Nov-2015

 ----------------------------------------------------------------------
 #uhf/gen scf(tight,novaracc,noincfock,fulldiag, ) stable(crhf) guess=m
 ix geom=nocrowd test
 ----------------------------------------------------------------------

 hf stability analysis of h10 triangular lattice, y= 1.7234297938777567
  alpha= 79.000000000000000
 ----------------------------------------------------------------------
 Symbolic Z-matrix:
 Charge =  0 Multiplicity = 3

                         Standard orientation:
 ---------------------------------------------------------------------
 Center     Atomic      Atomic             Coordinates (Angstroms)
 Number     Number       Type             X           Y           Z
 ---------------------------------------------------------------------
      1          1           0        1.315384    4.133532   -0.000000
      2          1           0        1.315384    2.377845   -0.000000
      3          1           0        0.657692    2.505688   -0.000000
      4          1           0        0.657692    0.750001   -0.000000
      5          1           0        0.000000    0.877843   -0.000000
      6          1           0       -0.000000   -0.877843   -0.000000
      7          1           0       -0.657692   -0.750001   -0.000000
      8          1           0       -0.657692   -2.505688   -0.000000
      9          1           0       -1.315384   -2.377845   -0.000000
     10          1           0       -1.315384   -4.133532   -0.000000
 ---------------------------------------------------------------------

 SCF Done:  E(UHF) =  -5.19762148941     A.U. after   14 cycles
 E2 =    -0.4051027490D-01 EUMP2 =    -0.52381317643097D+01

 The electronic state is 3-BU.
 Alpha  occ. eigenvalues --   -0.74057  -0.70570  -0.64431  -0.56490  -0.46136
 Alpha  occ. eigenvalues --   -0.45152
 Alpha virt. eigenvalues --    0.31417   0.40110   0.53410   0.66693
  Beta  occ. eigenvalues --   -0.73481  -0.68922  -0.61868  -0.54110
  Beta virt. eigenvalues --    0.16101   0.16246   0.31628   0.40566   0.53880
  Beta virt. eigenvalues --    0.66922

 Mulliken charges and spin densities:
               1          2
     1  H    0.000011   0.999852
     2  H   -0.003270   0.001682
     3  H    0.001984  -0.002845
     4  H   -0.000135  -0.001359
     5  H    0.001410   0.002670
     6  H    0.001410   0.002670
     7  H   -0.000135  -0.001359
     8  H    0.001984  -0.002845
     9  H   -0.003270   0.001682
    10  H    0.000011   0.999852
 Sum of Mulliken charges =  -0.00000   2.00000

 Dipole moment (field-independent basis, Debye):
    X=             -0.0000    Y=             -0.0000    Z=              0.0000  Tot=              0.0000
 Quadrupole moment (field-independent basis, Debye-Ang):
   XX=            -12.1455   YY=            -17.4522   ZZ=            -13.0096
   XY=             -1.8428   XZ=              0.0000   YZ=              0.0000

 Normal termination of Gaussian 09 at Thu Feb 23 13:13:08 2017.
