 Gaussian 09, Revision E.01,
 Gaussian 09:  ES64L-G09RevE.01 30-Nov-2015

 ----------------------------------------------------------------------
 #uhf/gen scf(tight,novaracc,noincfock,fulldiag, ) stable(crhf) guess=m
 ix geom=nocrowd test
 ----------------------------------------------------------------------

 hf stability analysis of h10 triangular lattice, y= 0.6655948165158517
 3 alpha= 37.500000000000000
 ----------------------------------------------------------------------
 Symbolic Z-matrix:
 Charge =  0 Multiplicity = 3

                         Standard orientation:
 ---------------------------------------------------------------------
 Center     Atomic      Atomic             Coordinates (Angstroms)
 Number     Number       Type             X           Y           Z
 ---------------------------------------------------------------------
      1          1           0        2.112207   -0.019285    0.000000
      2          1           0        2.112207   -1.112644    0.000000
      3          1           0        1.056104    0.263697    0.000000
      4          1           0        1.056104   -0.829662    0.000000
      5          1           0        0.000000    0.546680    0.000000
      6          1           0       -0.000000   -0.546680    0.000000
      7          1           0       -1.056104    0.829662    0.000000
      8          1           0       -1.056104   -0.263697    0.000000
      9          1           0       -2.112207    1.112644    0.000000
     10          1           0       -2.112207    0.019285    0.000000
 ---------------------------------------------------------------------

 SCF Done:  E(UHF) =  -4.91620677033     A.U. after   23 cycles
 E2 =    -0.7354380867D-01 EUMP2 =    -0.49897505789932D+01

 The electronic state is 3-BU.
 Alpha  occ. eigenvalues --   -0.89808  -0.81118  -0.58323  -0.47456  -0.35513
 Alpha  occ. eigenvalues --   -0.35383
 Alpha virt. eigenvalues --    0.15489   0.26500   0.46455   0.78009
  Beta  occ. eigenvalues --   -0.83896  -0.66798  -0.49107  -0.39008
  Beta virt. eigenvalues --    0.03302   0.03384   0.24583   0.37689   0.59330
  Beta virt. eigenvalues --    0.84616

 Mulliken charges and spin densities:
               1          2
     1  H    0.023273   0.221187
     2  H    0.024348   0.400798
     3  H   -0.015732   0.341717
     4  H   -0.006233   0.279844
     5  H   -0.025656  -0.243546
     6  H   -0.025656  -0.243546
     7  H   -0.006233   0.279844
     8  H   -0.015732   0.341717
     9  H    0.024348   0.400798
    10  H    0.023273   0.221187
 Sum of Mulliken charges =  -0.00000   2.00000

 Dipole moment (field-independent basis, Debye):
    X=              0.0000    Y=             -0.0000    Z=              0.0000  Tot=              0.0000
 Quadrupole moment (field-independent basis, Debye-Ang):
   XX=            -13.1005   YY=            -15.2545   ZZ=            -12.8857
   XY=             -0.7960   XZ=              0.0000   YZ=              0.0000

 Normal termination of Gaussian 09 at Thu Feb 23 13:03:50 2017.
