 Gaussian 09, Revision E.01,
 Gaussian 09:  ES64L-G09RevE.01 30-Nov-2015

 ----------------------------------------------------------------------
 #uhf/gen scf(tight,novaracc,noincfock,fulldiag, ) stable(crhf) guess=m
 ix geom=nocrowd test
 ----------------------------------------------------------------------

 hf stability analysis of h10 triangular lattice, y= 0.5831683378880934
 1 alpha= 30.500000000000000
 ----------------------------------------------------------------------
 Symbolic Z-matrix:
 Charge =  0 Multiplicity = 3

                         Standard orientation:
 ---------------------------------------------------------------------
 Center     Atomic      Atomic             Coordinates (Angstroms)
 Number     Number       Type             X           Y           Z
 ---------------------------------------------------------------------
      1          1           0        2.009899   -0.539599    0.000000
      2          1           0        2.009899   -1.688612    0.000000
      3          1           0        1.004950    0.017454    0.000000
      4          1           0        1.004950   -1.131559    0.000000
      5          1           0        0.000000    0.574507    0.000000
      6          1           0       -0.000000   -0.574507    0.000000
      7          1           0       -1.004950    1.131559   -0.000000
      8          1           0       -1.004950   -0.017454    0.000000
      9          1           0       -2.009899    1.688612    0.000000
     10          1           0       -2.009899    0.539599    0.000000
 ---------------------------------------------------------------------

 SCF Done:  E(UHF) =  -4.87611921329     A.U. after   29 cycles
 E2 =    -0.7507481461D-01 EUMP2 =    -0.49511940278940D+01

 The electronic state is 3-BU.
 Alpha  occ. eigenvalues --   -0.88067  -0.79355  -0.60068  -0.42725  -0.37097
 Alpha  occ. eigenvalues --   -0.31713
 Alpha virt. eigenvalues --    0.16662   0.18107   0.50860   0.55787
  Beta  occ. eigenvalues --   -0.82606  -0.68103  -0.48719  -0.34349
  Beta virt. eigenvalues --    0.00192   0.05788   0.29085   0.29630   0.59485
  Beta virt. eigenvalues --    0.62597

 Mulliken charges and spin densities:
               1          2
     1  H    0.035612   0.350292
     2  H    0.000197   0.472992
     3  H   -0.051371   0.053000
     4  H    0.038968   0.059726
     5  H   -0.023406   0.063991
     6  H   -0.023406   0.063991
     7  H    0.038968   0.059726
     8  H   -0.051371   0.053000
     9  H    0.000197   0.472992
    10  H    0.035612   0.350292
 Sum of Mulliken charges =   0.00000   2.00000

 Dipole moment (field-independent basis, Debye):
    X=             -0.0000    Y=              0.0000    Z=              0.0000  Tot=              0.0000
 Quadrupole moment (field-independent basis, Debye-Ang):
   XX=            -13.2095   YY=            -15.1583   ZZ=            -12.9610
   XY=             -1.3507   XZ=              0.0000   YZ=              0.0000

 Normal termination of Gaussian 09 at Thu Feb 23 13:02:10 2017.
