 Gaussian 09, Revision E.01,
 Gaussian 09:  ES64L-G09RevE.01 30-Nov-2015

 ----------------------------------------------------------------------
 #uhf/gen scf(tight,novaracc,noincfock,fulldiag, ) stable(crhf) guess=m
 ix geom=nocrowd test
 ----------------------------------------------------------------------

 hf stability analysis of h10 triangular lattice, y= 0.6035568768658181
 6 alpha= 32.250000000000000
 ----------------------------------------------------------------------
 Symbolic Z-matrix:
 Charge =  0 Multiplicity = 3

                         Standard orientation:
 ---------------------------------------------------------------------
 Center     Atomic      Atomic             Coordinates (Angstroms)
 Number     Number       Type             X           Y           Z
 ---------------------------------------------------------------------
      1          1           0        2.041779   -0.408342    0.000000
      2          1           0        2.041779   -1.539415    0.000000
      3          1           0        1.020890    0.078597    0.000000
      4          1           0        1.020890   -1.052476    0.000000
      5          1           0        0.000000    0.565536   -0.000000
      6          1           0       -0.000000   -0.565536   -0.000000
      7          1           0       -1.020890    1.052476    0.000000
      8          1           0       -1.020890   -0.078597    0.000000
      9          1           0       -2.041779    1.539415    0.000000
     10          1           0       -2.041779    0.408342    0.000000
 ---------------------------------------------------------------------

 SCF Done:  E(UHF) =  -4.89002664967     A.U. after   26 cycles
 E2 =    -0.7611558689D-01 EUMP2 =    -0.49661422365620D+01

 The electronic state is 3-BU.
 Alpha  occ. eigenvalues --   -0.88449  -0.79992  -0.59341  -0.44388  -0.36414
 Alpha  occ. eigenvalues --   -0.32684
 Alpha virt. eigenvalues --    0.16517   0.20124   0.49619   0.62225
  Beta  occ. eigenvalues --   -0.82844  -0.67430  -0.48750  -0.35575
  Beta virt. eigenvalues --    0.00824   0.04928   0.27612   0.32147   0.59698
  Beta virt. eigenvalues --    0.68751

 Mulliken charges and spin densities:
               1          2
     1  H    0.018240   0.272045
     2  H    0.023892   0.464672
     3  H   -0.014978   0.207819
     4  H    0.019768   0.145810
     5  H   -0.046922  -0.090347
     6  H   -0.046922  -0.090347
     7  H    0.019768   0.145810
     8  H   -0.014978   0.207819
     9  H    0.023892   0.464672
    10  H    0.018240   0.272045
 Sum of Mulliken charges =  -0.00000   2.00000

 Dipole moment (field-independent basis, Debye):
    X=              0.0000    Y=              0.0000    Z=              0.0000  Tot=              0.0000
 Quadrupole moment (field-independent basis, Debye-Ang):
   XX=            -12.9059   YY=            -14.9113   ZZ=            -12.9463
   XY=             -1.6331   XZ=             -0.0000   YZ=             -0.0000

 Normal termination of Gaussian 09 at Thu Feb 23 13:02:35 2017.
