 Gaussian 09, Revision E.01,
 Gaussian 09:  ES64L-G09RevE.01 30-Nov-2015

 ----------------------------------------------------------------------
 #uhf/gen scf(tight,novaracc,noincfock,fulldiag, ) stable(crhf) guess=m
 ix geom=nocrowd test
 ----------------------------------------------------------------------

 hf stability analysis of h10 triangular lattice, y= 0.5860779187036555
 5 alpha= 30.750000000000000
 ----------------------------------------------------------------------
 Symbolic Z-matrix:
 Charge =  0 Multiplicity = 3

                         Standard orientation:
 ---------------------------------------------------------------------
 Center     Atomic      Atomic             Coordinates (Angstroms)
 Number     Number       Type             X           Y           Z
 ---------------------------------------------------------------------
      1          1           0        2.014716   -0.520769    0.000000
      2          1           0        2.014716   -1.667035    0.000000
      3          1           0        1.007358    0.026182    0.000000
      4          1           0        1.007358   -1.120084    0.000000
      5          1           0        0.000000    0.573133    0.000000
      6          1           0       -0.000000   -0.573133    0.000000
      7          1           0       -1.007358    1.120084   -0.000000
      8          1           0       -1.007358   -0.026182    0.000000
      9          1           0       -2.014716    1.667035   -0.000000
     10          1           0       -2.014716    0.520769    0.000000
 ---------------------------------------------------------------------

 SCF Done:  E(UHF) =  -4.87814191620     A.U. after   26 cycles
 E2 =    -0.7553548231D-01 EUMP2 =    -0.49536773985103D+01

 The electronic state is 3-BU.
 Alpha  occ. eigenvalues --   -0.88090  -0.79460  -0.59937  -0.42978  -0.36973
 Alpha  occ. eigenvalues --   -0.31847
 Alpha virt. eigenvalues --    0.16644   0.18364   0.50676   0.56775
  Beta  occ. eigenvalues --   -0.82630  -0.67959  -0.48685  -0.34500
  Beta virt. eigenvalues --    0.00238   0.05625   0.28847   0.30021   0.59554
  Beta virt. eigenvalues --    0.63499

 Mulliken charges and spin densities:
               1          2
     1  H    0.031356   0.335633
     2  H    0.006071   0.474266
     3  H   -0.042856   0.082864
     4  H    0.035225   0.074069
     5  H   -0.029797   0.033167
     6  H   -0.029797   0.033167
     7  H    0.035225   0.074069
     8  H   -0.042856   0.082864
     9  H    0.006071   0.474266
    10  H    0.031356   0.335633
 Sum of Mulliken charges =  -0.00000   2.00000

 Dipole moment (field-independent basis, Debye):
    X=              0.0000    Y=              0.0000    Z=             -0.0000  Tot=              0.0000
 Quadrupole moment (field-independent basis, Debye-Ang):
   XX=            -13.1198   YY=            -15.0724   ZZ=            -12.9605
   XY=             -1.4637   XZ=              0.0000   YZ=              0.0000

 Normal termination of Gaussian 09 at Thu Feb 23 13:02:13 2017.
