 Gaussian 09, Revision E.01,
 Gaussian 09:  ES64L-G09RevE.01 30-Nov-2015

 ----------------------------------------------------------------------
 #uhf/gen scf(tight,novaracc,noincfock,fulldiag, ) stable(crhf) guess=m
 ix geom=nocrowd test
 ----------------------------------------------------------------------

 hf stability analysis of h10 triangular lattice, y= 0.4395209933011619
 6 alpha= 18.500000000000000
 ----------------------------------------------------------------------
 Symbolic Z-matrix:
 Charge =  0 Multiplicity = 3

                         Standard orientation:
 ---------------------------------------------------------------------
 Center     Atomic      Atomic             Coordinates (Angstroms)
 Number     Number       Type             X           Y           Z
 ---------------------------------------------------------------------
      1          1           0        1.667233   -1.519907    0.000000
      2          1           0        1.667233   -2.905077    0.000000
      3          1           0        0.833616   -0.413661    0.000000
      4          1           0        0.833616   -1.798831    0.000000
      5          1           0       -0.000000    0.692585   -0.000000
      6          1           0       -0.000000   -0.692585   -0.000000
      7          1           0       -0.833616    1.798831    0.000000
      8          1           0       -0.833616    0.413661    0.000000
      9          1           0       -1.667233    2.905077    0.000000
     10          1           0       -1.667233    1.519907    0.000000
 ---------------------------------------------------------------------

 SCF Done:  E(UHF) =  -4.86061939244     A.U. after   26 cycles
 E2 =    -0.6628527884D-01 EUMP2 =    -0.49269046712760D+01

 Unable to determine electronic state:  partially filled degenerate orbitals.
 Alpha  occ. eigenvalues --   -0.83264  -0.74458  -0.62322  -0.46086  -0.30851
 Alpha  occ. eigenvalues --   -0.22639
 Alpha virt. eigenvalues --    0.10632   0.18049   0.35951   0.56033
  Beta  occ. eigenvalues --   -0.74340  -0.67968  -0.53312  -0.36111
  Beta virt. eigenvalues --    0.05187   0.15058   0.24636   0.26111   0.46615
  Beta virt. eigenvalues --    0.66879

 Mulliken charges and spin densities:
               1          2
     1  H    0.053094   0.413970
     2  H   -0.000312  -0.480766
     3  H   -0.072351   0.285635
     4  H    0.069999   0.152996
     5  H   -0.046095   0.261245
     6  H   -0.033969   0.450062
     7  H    0.088820  -0.180658
     8  H    0.042730  -0.078784
     9  H   -0.066448   0.905362
    10  H   -0.035468   0.270938
 Sum of Mulliken charges =  -0.00000   2.00000

 Dipole moment (field-independent basis, Debye):
    X=              0.7027    Y=             -1.2185    Z=              0.0000  Tot=              1.4066
 Quadrupole moment (field-independent basis, Debye-Ang):
   XX=            -13.8865   YY=            -16.4712   ZZ=            -12.8579
   XY=              1.8615   XZ=              0.0000   YZ=             -0.0000

 Normal termination of Gaussian 09 at Thu Feb 23 12:59:22 2017.
