 Gaussian 09, Revision E.01,
 Gaussian 09:  ES64L-G09RevE.01 30-Nov-2015

 ----------------------------------------------------------------------
 #uhf/gen scf(tight,novaracc,noincfock,fulldiag, ) stable(crhf) guess=m
 ix geom=nocrowd test
 ----------------------------------------------------------------------

 hf stability analysis of h10 triangular lattice, y= 0.6716215332591580
 8 alpha= 38.000000000000000
 ----------------------------------------------------------------------
 Symbolic Z-matrix:
 Charge =  0 Multiplicity = 3

                         Standard orientation:
 ---------------------------------------------------------------------
 Center     Atomic      Atomic             Coordinates (Angstroms)
 Number     Number       Type             X           Y           Z
 ---------------------------------------------------------------------
      1          1           0        2.116980    0.017625    0.000000
      2          1           0        2.116980   -1.073269    0.000000
      3          1           0        1.058490    0.281536    0.000000
      4          1           0        1.058490   -0.809358    0.000000
      5          1           0       -0.000000    0.545447   -0.000000
      6          1           0       -0.000000   -0.545447   -0.000000
      7          1           0       -1.058490    0.809358    0.000000
      8          1           0       -1.058490   -0.281536    0.000000
      9          1           0       -2.116980    1.073269    0.000000
     10          1           0       -2.116980   -0.017625    0.000000
 ---------------------------------------------------------------------

 SCF Done:  E(UHF) =  -4.91755648289     A.U. after   22 cycles
 E2 =    -0.7334425935D-01 EUMP2 =    -0.49909007422393D+01

 The electronic state is 3-BU.
 Alpha  occ. eigenvalues --   -0.89900  -0.81189  -0.58253  -0.47651  -0.35726
 Alpha  occ. eigenvalues --   -0.35302
 Alpha virt. eigenvalues --    0.15387   0.27040   0.46176   0.79250
  Beta  occ. eigenvalues --   -0.83979  -0.66756  -0.49128  -0.39250
  Beta virt. eigenvalues --    0.03291   0.03503   0.24366   0.38070   0.59313
  Beta virt. eigenvalues --    0.85851

 Mulliken charges and spin densities:
               1          2
     1  H    0.023958   0.221984
     2  H    0.024009   0.394407
     3  H   -0.016928   0.347138
     4  H   -0.008067   0.288462
     5  H   -0.022971  -0.251992
     6  H   -0.022971  -0.251992
     7  H   -0.008067   0.288462
     8  H   -0.016928   0.347138
     9  H    0.024009   0.394407
    10  H    0.023958   0.221984
 Sum of Mulliken charges =  -0.00000   2.00000

 Dipole moment (field-independent basis, Debye):
    X=              0.0000    Y=              0.0000    Z=              0.0000  Tot=              0.0000
 Quadrupole moment (field-independent basis, Debye-Ang):
   XX=            -13.1292   YY=            -15.2720   ZZ=            -12.8812
   XY=             -0.7213   XZ=             -0.0000   YZ=             -0.0000

 Normal termination of Gaussian 09 at Thu Feb 23 13:03:57 2017.
