 Gaussian 09, Revision E.01,
 Gaussian 09:  ES64L-G09RevE.01 30-Nov-2015

 ----------------------------------------------------------------------
 #uhf/gen scf(tight,novaracc,noincfock,fulldiag, ) stable(crhf) guess=m
 ix geom=nocrowd test
 ----------------------------------------------------------------------

 hf stability analysis of h10 triangular lattice, y= 0.5657123745340343
 3 alpha= 29.000000000000000
 ----------------------------------------------------------------------
 Symbolic Z-matrix:
 Charge =  0 Multiplicity = 3

                         Standard orientation:
 ---------------------------------------------------------------------
 Center     Atomic      Atomic             Coordinates (Angstroms)
 Number     Number       Type             X           Y           Z
 ---------------------------------------------------------------------
      1          1           0        1.979133   -0.653262    0.000000
      2          1           0        1.979133   -1.820137    0.000000
      3          1           0        0.989566   -0.034912    0.000000
      4          1           0        0.989566   -1.201787    0.000000
      5          1           0       -0.000000    0.583438    0.000000
      6          1           0       -0.000000   -0.583438   -0.000000
      7          1           0       -0.989566    1.201787    0.000000
      8          1           0       -0.989566    0.034912    0.000000
      9          1           0       -1.979133    1.820137    0.000000
     10          1           0       -1.979133    0.653262    0.000000
 ---------------------------------------------------------------------

 SCF Done:  E(UHF) =  -4.86531958688     A.U. after   24 cycles
 E2 =    -0.7035381034D-01 EUMP2 =    -0.49356733972220D+01

 The electronic state is 3-BU.
 Alpha  occ. eigenvalues --   -0.88179  -0.78710  -0.60815  -0.41686  -0.37595
 Alpha  occ. eigenvalues --   -0.30816
 Alpha virt. eigenvalues --    0.16840   0.16970   0.49738   0.51809
  Beta  occ. eigenvalues --   -0.82380  -0.69167  -0.49430  -0.33643
  Beta virt. eigenvalues --    0.00414   0.07313   0.27121   0.30496   0.57209
  Beta virt. eigenvalues --    0.59035

 Mulliken charges and spin densities:
               1          2
     1  H    0.060435   0.428177
     2  H   -0.043969   0.444762
     3  H   -0.104623  -0.120746
     4  H    0.067676  -0.016875
     5  H    0.020481   0.264682
     6  H    0.020481   0.264682
     7  H    0.067676  -0.016875
     8  H   -0.104623  -0.120746
     9  H   -0.043969   0.444762
    10  H    0.060435   0.428177
 Sum of Mulliken charges =  -0.00000   2.00000

 Dipole moment (field-independent basis, Debye):
    X=             -0.0000    Y=             -0.0000    Z=             -0.0000  Tot=              0.0000
 Quadrupole moment (field-independent basis, Debye-Ang):
   XX=            -14.1071   YY=            -15.9060   ZZ=            -12.9495
   XY=             -0.2373   XZ=              0.0000   YZ=              0.0000

 Normal termination of Gaussian 09 at Thu Feb 23 13:01:49 2017.
