 Gaussian 09, Revision E.01,
 Gaussian 09:  ES64L-G09RevE.01 30-Nov-2015

 ----------------------------------------------------------------------
 #uhf/gen scf(tight,novaracc,noincfock,fulldiag, ) stable(crhf) guess=m
 ix geom=nocrowd test
 ----------------------------------------------------------------------

 hf stability analysis of h10 triangular lattice, y= 0.2893299282551661
 8 alpha= 8.2500000000000000
 ----------------------------------------------------------------------
 Symbolic Z-matrix:
 Charge =  0 Multiplicity = 3

                         Standard orientation:
 ---------------------------------------------------------------------
 Center     Atomic      Atomic             Coordinates (Angstroms)
 Number     Number       Type             X           Y           Z
 ---------------------------------------------------------------------
      1          1           0        1.145343   -2.858443   -0.000000
      2          1           0        1.145343   -4.874783   -0.000000
      3          1           0        0.572672   -0.925137   -0.000000
      4          1           0        0.572672   -2.941477   -0.000000
      5          1           0        0.000000    1.008170   -0.000000
      6          1           0       -0.000000   -1.008170   -0.000000
      7          1           0       -0.572672    2.941477    0.000000
      8          1           0       -0.572672    0.925137   -0.000000
      9          1           0       -1.145343    4.874783    0.000000
     10          1           0       -1.145343    2.858443   -0.000000
 ---------------------------------------------------------------------

 SCF Done:  E(UHF) =  -5.09064522072     A.U. after   11 cycles
 E2 =    -0.3318991167D-01 EUMP2 =    -0.51238351323894D+01

 The electronic state is 3-BU.
 Alpha  occ. eigenvalues --   -0.73329  -0.71022  -0.67201  -0.62793  -0.48689
 Alpha  occ. eigenvalues --   -0.48600
 Alpha virt. eigenvalues --    0.42066   0.48996   0.59107   0.68767
  Beta  occ. eigenvalues --   -0.73057  -0.70253  -0.66200  -0.62213
  Beta virt. eigenvalues --    0.14284   0.14308   0.42147   0.49193   0.59306
  Beta virt. eigenvalues --    0.68853

 Mulliken charges and spin densities:
               1          2
     1  H   -0.001884  -0.002132
     2  H    0.004593   1.004573
     3  H   -0.000248  -0.000136
     4  H   -0.002851  -0.002596
     5  H    0.000390   0.000291
     6  H    0.000390   0.000291
     7  H   -0.002851  -0.002596
     8  H   -0.000248  -0.000136
     9  H    0.004593   1.004573
    10  H   -0.001884  -0.002132
 Sum of Mulliken charges =  -0.00000   2.00000

 Dipole moment (field-independent basis, Debye):
    X=             -0.0000    Y=             -0.0000    Z=              0.0000  Tot=              0.0000
 Quadrupole moment (field-independent basis, Debye-Ang):
   XX=            -12.2945   YY=            -15.8210   ZZ=            -13.2541
   XY=              0.8205   XZ=              0.0000   YZ=             -0.0000

 Normal termination of Gaussian 09 at Thu Feb 23 12:57:06 2017.
