 Gaussian 09, Revision E.01,
 Gaussian 09:  ES64L-G09RevE.01 30-Nov-2015

 ----------------------------------------------------------------------
 #uhf/gen scf(tight,novaracc,noincfock,fulldiag, ) stable(crhf) guess=m
 ix geom=nocrowd test
 ----------------------------------------------------------------------

 hf stability analysis of h10 triangular lattice, y= 0.6929481720257152
 4 alpha= 39.750000000000000
 ----------------------------------------------------------------------
 Symbolic Z-matrix:
 Charge =  0 Multiplicity = 3

                         Standard orientation:
 ---------------------------------------------------------------------
 Center     Atomic      Atomic             Coordinates (Angstroms)
 Number     Number       Type             X           Y           Z
 ---------------------------------------------------------------------
      1          1           0        2.131070    0.146870   -0.000000
      2          1           0        2.131070   -0.936811    0.000000
      3          1           0        1.065535    0.344355   -0.000000
      4          1           0        1.065535   -0.739326    0.000000
      5          1           0        0.000000    0.541841   -0.000000
      6          1           0       -0.000000   -0.541841   -0.000000
      7          1           0       -1.065535    0.739326    0.000000
      8          1           0       -1.065535   -0.344355   -0.000000
      9          1           0       -2.131070    0.936811    0.000000
     10          1           0       -2.131070   -0.146870   -0.000000
 ---------------------------------------------------------------------

 SCF Done:  E(UHF) =  -4.92117852105     A.U. after   21 cycles
 E2 =    -0.7275519673D-01 EUMP2 =    -0.49939337177852D+01

 The electronic state is 3-BU.
 Alpha  occ. eigenvalues --   -0.90168  -0.81396  -0.58036  -0.48219  -0.36369
 Alpha  occ. eigenvalues --   -0.35047
 Alpha virt. eigenvalues --    0.15061   0.28762   0.45248   0.83083
  Beta  occ. eigenvalues --   -0.84226  -0.66623  -0.49192  -0.39971
  Beta virt. eigenvalues --    0.03034   0.04120   0.23710   0.39194   0.59294
  Beta virt. eigenvalues --    0.89646

 Mulliken charges and spin densities:
               1          2
     1  H    0.025734   0.229902
     2  H    0.023357   0.370893
     3  H   -0.020829   0.361135
     4  H   -0.013994   0.315100
     5  H   -0.014268  -0.277029
     6  H   -0.014268  -0.277029
     7  H   -0.013994   0.315100
     8  H   -0.020829   0.361135
     9  H    0.023357   0.370893
    10  H    0.025734   0.229902
 Sum of Mulliken charges =   0.00000   2.00000

 Dipole moment (field-independent basis, Debye):
    X=             -0.0000    Y=             -0.0000    Z=              0.0000  Tot=              0.0000
 Quadrupole moment (field-independent basis, Debye-Ang):
   XX=            -13.2228   YY=            -15.3093   ZZ=            -12.8675
   XY=             -0.4887   XZ=             -0.0000   YZ=             -0.0000

 Normal termination of Gaussian 09 at Thu Feb 23 13:04:21 2017.
