 Gaussian 09, Revision E.01,
 Gaussian 09:  ES64L-G09RevE.01 30-Nov-2015

 ----------------------------------------------------------------------
 #uhf/gen scf(tight,novaracc,noincfock,fulldiag, ) stable(crhf) guess=m
 ix geom=nocrowd test
 ----------------------------------------------------------------------

 hf stability analysis of h10 triangular lattice, y= 0.3540551300279828
 3 alpha= 12.250000000000000
 ----------------------------------------------------------------------
 Symbolic Z-matrix:
 Charge =  0 Multiplicity = 3

                         Standard orientation:
 ---------------------------------------------------------------------
 Center     Atomic      Atomic             Coordinates (Angstroms)
 Number     Number       Type             X           Y           Z
 ---------------------------------------------------------------------
      1          1           0        1.383975   -2.202519   -0.000000
      2          1           0        1.383975   -3.871192   -0.000000
      3          1           0        0.691987   -0.684091   -0.000000
      4          1           0        0.691987   -2.352764   -0.000000
      5          1           0        0.000000    0.834336   -0.000000
      6          1           0       -0.000000   -0.834336   -0.000000
      7          1           0       -0.691987    2.352764   -0.000000
      8          1           0       -0.691987    0.684091   -0.000000
      9          1           0       -1.383975    3.871192   -0.000000
     10          1           0       -1.383975    2.202519   -0.000000
 ---------------------------------------------------------------------

 SCF Done:  E(UHF) =  -5.19234221545     A.U. after   14 cycles
 E2 =    -0.4405669113D-01 EUMP2 =    -0.52363989065828D+01

 The electronic state is 3-BU.
 Alpha  occ. eigenvalues --   -0.74644  -0.70677  -0.63647  -0.54461  -0.44549
 Alpha  occ. eigenvalues --   -0.42593
 Alpha virt. eigenvalues --    0.27392   0.36717   0.51183   0.65817
  Beta  occ. eigenvalues --   -0.73905  -0.68581  -0.60183  -0.50580
  Beta virt. eigenvalues --    0.17081   0.17350   0.27709   0.37338   0.51836
  Beta virt. eigenvalues --    0.66159

 Mulliken charges and spin densities:
               1          2
     1  H   -0.004162   0.007181
     2  H   -0.006016   0.993636
     3  H    0.000424  -0.003380
     4  H    0.007548  -0.003468
     5  H    0.002206   0.006031
     6  H    0.002206   0.006031
     7  H    0.007548  -0.003468
     8  H    0.000424  -0.003380
     9  H   -0.006016   0.993636
    10  H   -0.004162   0.007181
 Sum of Mulliken charges =   0.00000   2.00000

 Dipole moment (field-independent basis, Debye):
    X=             -0.0000    Y=              0.0000    Z=              0.0000  Tot=              0.0000
 Quadrupole moment (field-independent basis, Debye-Ang):
   XX=            -12.2360   YY=            -18.2930   ZZ=            -12.9093
   XY=              2.4810   XZ=             -0.0000   YZ=              0.0000

 Normal termination of Gaussian 09 at Thu Feb 23 12:57:58 2017.
