 Gaussian 09, Revision E.01,
 Gaussian 09:  ES64L-G09RevE.01 30-Nov-2015

 ----------------------------------------------------------------------
 #uhf/gen scf(tight,novaracc,noincfock,fulldiag, ) stable(crhf) guess=m
 ix geom=nocrowd test
 ----------------------------------------------------------------------

 hf stability analysis of h10 triangular lattice, y= 0.5802591979462536
 9 alpha= 30.250000000000000
 ----------------------------------------------------------------------
 Symbolic Z-matrix:
 Charge =  0 Multiplicity = 3

                         Standard orientation:
 ---------------------------------------------------------------------
 Center     Atomic      Atomic             Coordinates (Angstroms)
 Number     Number       Type             X           Y           Z
 ---------------------------------------------------------------------
      1          1           0        2.004994   -0.558459   -0.000000
      2          1           0        2.004994   -1.710283   -0.000000
      3          1           0        1.002497    0.008727   -0.000000
      4          1           0        1.002497   -1.143098   -0.000000
      5          1           0        0.000000    0.575912    0.000000
      6          1           0       -0.000000   -0.575912    0.000000
      7          1           0       -1.002497    1.143098   -0.000000
      8          1           0       -1.002497   -0.008727   -0.000000
      9          1           0       -2.004994    1.710283   -0.000000
     10          1           0       -2.004994    0.558459   -0.000000
 ---------------------------------------------------------------------

 SCF Done:  E(UHF) =  -4.87413313776     A.U. after   21 cycles
 E2 =    -0.7447310274D-01 EUMP2 =    -0.49486062404955D+01

 The electronic state is 3-BU.
 Alpha  occ. eigenvalues --   -0.88060  -0.79245  -0.60205  -0.42484  -0.37221
 Alpha  occ. eigenvalues --   -0.31577
 Alpha virt. eigenvalues --    0.16685   0.17865   0.51041   0.54781
  Beta  occ. eigenvalues --   -0.82582  -0.68266  -0.48778  -0.34210
  Beta virt. eigenvalues --    0.00170   0.05976   0.29227   0.29330   0.59406
  Beta virt. eigenvalues --    0.61691

 Mulliken charges and spin densities:
               1          2
     1  H    0.040247   0.365320
     2  H   -0.006508   0.470484
     3  H   -0.060702   0.021673
     4  H    0.043118   0.045258
     5  H   -0.016155   0.097266
     6  H   -0.016155   0.097266
     7  H    0.043118   0.045258
     8  H   -0.060702   0.021673
     9  H   -0.006508   0.470484
    10  H    0.040247   0.365320
 Sum of Mulliken charges =  -0.00000   2.00000

 Dipole moment (field-independent basis, Debye):
    X=              0.0000    Y=              0.0000    Z=             -0.0000  Tot=              0.0000
 Quadrupole moment (field-independent basis, Debye-Ang):
   XX=            -13.3209   YY=            -15.2624   ZZ=            -12.9607
   XY=             -1.2084   XZ=              0.0000   YZ=              0.0000

 Normal termination of Gaussian 09 at Thu Feb 23 13:02:06 2017.
