 Gaussian 09, Revision E.01,
 Gaussian 09:  ES64L-G09RevE.01 30-Nov-2015

 ----------------------------------------------------------------------
 #uhf/gen scf(tight,novaracc,noincfock,fulldiag, ) stable(crhf) guess=m
 ix geom=nocrowd test
 ----------------------------------------------------------------------

 hf stability analysis of h10 triangular lattice, y= 0.7972534768479298
 0 alpha= 47.750000000000000
 ----------------------------------------------------------------------
 Symbolic Z-matrix:
 Charge =  0 Multiplicity = 3

                         Standard orientation:
 ---------------------------------------------------------------------
 Center     Atomic      Atomic             Coordinates (Angstroms)
 Number     Number       Type             X           Y           Z
 ---------------------------------------------------------------------
      1          1           0        2.144187    0.744988    0.000000
      2          1           0        2.144187   -0.332064    0.000000
      3          1           0        1.072094    0.641757    0.000000
      4          1           0        1.072094   -0.435295    0.000000
      5          1           0        0.000000    0.538526    0.000000
      6          1           0       -0.000000   -0.538526    0.000000
      7          1           0       -1.072094    0.435295    0.000000
      8          1           0       -1.072094   -0.641757    0.000000
      9          1           0       -2.144187    0.332064    0.000000
     10          1           0       -2.144187   -0.744988    0.000000
 ---------------------------------------------------------------------

 SCF Done:  E(UHF) =  -4.92404332356     A.U. after   21 cycles
 E2 =    -0.7220875424D-01 EUMP2 =    -0.49962520777996D+01

 The electronic state is 3-BU.
 Alpha  occ. eigenvalues --   -0.90413  -0.81586  -0.57814  -0.48734  -0.36990
 Alpha  occ. eigenvalues --   -0.34783
 Alpha virt. eigenvalues --    0.14722   0.30611   0.44174   0.86901
  Beta  occ. eigenvalues --   -0.84462  -0.66480  -0.49252  -0.40648
  Beta virt. eigenvalues --    0.02823   0.04732   0.23078   0.40226   0.59328
  Beta virt. eigenvalues --    0.93398

 Mulliken charges and spin densities:
               1          2
     1  H    0.023855   0.333965
     2  H    0.026515   0.253410
     3  H   -0.020799   0.344241
     4  H   -0.024608   0.369365
     5  H   -0.004964  -0.300981
     6  H   -0.004964  -0.300981
     7  H   -0.024608   0.369365
     8  H   -0.020799   0.344241
     9  H    0.026515   0.253410
    10  H    0.023855   0.333965
 Sum of Mulliken charges =  -0.00000   2.00000

 Dipole moment (field-independent basis, Debye):
    X=             -0.0000    Y=             -0.0000    Z=              0.0000  Tot=              0.0000
 Quadrupole moment (field-independent basis, Debye-Ang):
   XX=            -13.3221   YY=            -15.3213   ZZ=            -12.8543
   XY=              0.2272   XZ=              0.0000   YZ=             -0.0000

 Normal termination of Gaussian 09 at Thu Feb 23 13:06:11 2017.
