 Gaussian 09, Revision E.01,
 Gaussian 09:  ES64L-G09RevE.01 30-Nov-2015

 ----------------------------------------------------------------------
 #uhf/gen scf(tight,novaracc,noincfock,fulldiag, ) stable(crhf) guess=m
 ix geom=nocrowd test
 ----------------------------------------------------------------------

 hf stability analysis of h10 triangular lattice, y= 0.8042800232144692
 3 alpha= 48.250000000000000
 ----------------------------------------------------------------------
 Symbolic Z-matrix:
 Charge =  0 Multiplicity = 3

                         Standard orientation:
 ---------------------------------------------------------------------
 Center     Atomic      Atomic             Coordinates (Angstroms)
 Number     Number       Type             X           Y           Z
 ---------------------------------------------------------------------
      1          1           0        2.142221    0.783095   -0.000000
      2          1           0        2.142221   -0.294945   -0.000000
      3          1           0        1.071111    0.661058   -0.000000
      4          1           0        1.071111   -0.416983   -0.000000
      5          1           0       -0.000000    0.539020    0.000000
      6          1           0       -0.000000   -0.539020    0.000000
      7          1           0       -1.071111    0.416983   -0.000000
      8          1           0       -1.071111   -0.661058   -0.000000
      9          1           0       -2.142221    0.294945   -0.000000
     10          1           0       -2.142221   -0.783095   -0.000000
 ---------------------------------------------------------------------

 SCF Done:  E(UHF) =  -4.92364617018     A.U. after   22 cycles
 E2 =    -0.7229046125D-01 EUMP2 =    -0.49959366314347D+01

 The electronic state is 3-BU.
 Alpha  occ. eigenvalues --   -0.90377  -0.81558  -0.57849  -0.48657  -0.36896
 Alpha  occ. eigenvalues --   -0.34825
 Alpha virt. eigenvalues --    0.14775   0.30313   0.44354   0.86312
  Beta  occ. eigenvalues --   -0.84427  -0.66503  -0.49243  -0.40546
  Beta virt. eigenvalues --    0.02853   0.04638   0.23174   0.40072   0.59318
  Beta virt. eigenvalues --    0.92822

 Mulliken charges and spin densities:
               1          2
     1  H    0.023643   0.341623
     2  H    0.026517   0.247700
     3  H   -0.019633   0.339246
     4  H   -0.024084   0.368756
     5  H   -0.006443  -0.297325
     6  H   -0.006443  -0.297325
     7  H   -0.024084   0.368756
     8  H   -0.019633   0.339246
     9  H    0.026517   0.247700
    10  H    0.023643   0.341623
 Sum of Mulliken charges =  -0.00000   2.00000

 Dipole moment (field-independent basis, Debye):
    X=              0.0000    Y=             -0.0000    Z=             -0.0000  Tot=              0.0000
 Quadrupole moment (field-independent basis, Debye-Ang):
   XX=            -13.3064   YY=            -15.3211   ZZ=            -12.8563
   XY=              0.2739   XZ=             -0.0000   YZ=              0.0000

 Normal termination of Gaussian 09 at Thu Feb 23 13:06:18 2017.
