 Gaussian 09, Revision E.01,
 Gaussian 09:  ES64L-G09RevE.01 30-Nov-2015

 ----------------------------------------------------------------------
 #uhf/gen scf(tight,novaracc,noincfock,fulldiag, ) stable(crhf) guess=m
 ix geom=nocrowd test
 ----------------------------------------------------------------------

 hf stability analysis of h10 triangular lattice, y= 0.4521619835073459
 3 alpha= 19.500000000000000
 ----------------------------------------------------------------------
 Symbolic Z-matrix:
 Charge =  0 Multiplicity = 3

                         Standard orientation:
 ---------------------------------------------------------------------
 Center     Atomic      Atomic             Coordinates (Angstroms)
 Number     Number       Type             X           Y           Z
 ---------------------------------------------------------------------
      1          1           0        1.704907   -1.428103    0.000000
      2          1           0        1.704907   -2.782665    0.000000
      3          1           0        0.852453   -0.375411    0.000000
      4          1           0        0.852453   -1.729973    0.000000
      5          1           0       -0.000000    0.677281   -0.000000
      6          1           0       -0.000000   -0.677281   -0.000000
      7          1           0       -0.852453    1.729973    0.000000
      8          1           0       -0.852453    0.375411    0.000000
      9          1           0       -1.704907    2.782665    0.000000
     10          1           0       -1.704907    1.428103    0.000000
 ---------------------------------------------------------------------

 SCF Done:  E(UHF) =  -4.85228888269     A.U. after   29 cycles
 E2 =    -0.6496044684D-01 EUMP2 =    -0.49172493295272D+01

 Unable to determine electronic state:  partially filled degenerate orbitals.
 Alpha  occ. eigenvalues --   -0.84153  -0.74926  -0.62062  -0.44757  -0.30189
 Alpha  occ. eigenvalues --   -0.24394
 Alpha virt. eigenvalues --    0.12117   0.16930   0.35016   0.54847
  Beta  occ. eigenvalues --   -0.75185  -0.68683  -0.53119  -0.35262
  Beta virt. eigenvalues --    0.06880   0.13217   0.24304   0.25862   0.45815
  Beta virt. eigenvalues --    0.66208

 Mulliken charges and spin densities:
               1          2
     1  H   -0.047726   0.377917
     2  H   -0.073033   0.870544
     3  H    0.049986  -0.135374
     4  H    0.107667  -0.260259
     5  H   -0.032274   0.453811
     6  H   -0.050015   0.337000
     7  H    0.078469   0.141166
     8  H   -0.086415   0.298937
     9  H   -0.021534  -0.465224
    10  H    0.074874   0.381482
 Sum of Mulliken charges =   0.00000   2.00000

 Dipole moment (field-independent basis, Debye):
    X=             -0.7477    Y=              1.0984    Z=              0.0000  Tot=              1.3287
 Quadrupole moment (field-independent basis, Debye-Ang):
   XX=            -14.2518   YY=            -16.8857   ZZ=            -12.8557
   XY=              2.1472   XZ=             -0.0000   YZ=              0.0000

 Normal termination of Gaussian 09 at Thu Feb 23 12:59:35 2017.
