 Gaussian 09, Revision E.01,
 Gaussian 09:  ES64L-G09RevE.01 30-Nov-2015

 ----------------------------------------------------------------------
 #uhf/gen scf(tight,novaracc,noincfock,fulldiag, ) stable(crhf) guess=m
 ix geom=nocrowd test
 ----------------------------------------------------------------------

 hf stability analysis of h10 triangular lattice, y= 0.8149635215757493
 6 alpha= 49.000000000000000
 ----------------------------------------------------------------------
 Symbolic Z-matrix:
 Charge =  0 Multiplicity = 3

                         Standard orientation:
 ---------------------------------------------------------------------
 Center     Atomic      Atomic             Coordinates (Angstroms)
 Number     Number       Type             X           Y           Z
 ---------------------------------------------------------------------
      1          1           0        2.138657    0.840487    0.000000
      2          1           0        2.138657   -0.239350    0.000000
      3          1           0        1.069328    0.690203    0.000000
      4          1           0        1.069328   -0.389634    0.000000
      5          1           0        0.000000    0.539919    0.000000
      6          1           0       -0.000000   -0.539919    0.000000
      7          1           0       -1.069328    0.389634    0.000000
      8          1           0       -1.069328   -0.690203    0.000000
      9          1           0       -2.138657    0.239350    0.000000
     10          1           0       -2.138657   -0.840487    0.000000
 ---------------------------------------------------------------------

 SCF Done:  E(UHF) =  -4.92289676488     A.U. after   22 cycles
 E2 =    -0.7243880493D-01 EUMP2 =    -0.49953355698040D+01

 The electronic state is 3-BU.
 Alpha  occ. eigenvalues --   -0.90310  -0.81507  -0.57910  -0.48518  -0.36726
 Alpha  occ. eigenvalues --   -0.34898
 Alpha virt. eigenvalues --    0.14870   0.29794   0.44660   0.85259
  Beta  occ. eigenvalues --   -0.84362  -0.66543  -0.49226  -0.40361
  Beta virt. eigenvalues --    0.02908   0.04470   0.23347   0.39793   0.59306
  Beta virt. eigenvalues --    0.91789

 Mulliken charges and spin densities:
               1          2
     1  H    0.023419   0.352882
     2  H    0.026377   0.240029
     3  H   -0.017687   0.330968
     4  H   -0.023063   0.366884
     5  H   -0.009046  -0.290764
     6  H   -0.009046  -0.290764
     7  H   -0.023063   0.366884
     8  H   -0.017687   0.330968
     9  H    0.026377   0.240029
    10  H    0.023419   0.352882
 Sum of Mulliken charges =  -0.00000   2.00000

 Dipole moment (field-independent basis, Debye):
    X=             -0.0000    Y=             -0.0000    Z=              0.0000  Tot=              0.0000
 Quadrupole moment (field-independent basis, Debye-Ang):
   XX=            -13.2788   YY=            -15.3192   ZZ=            -12.8599
   XY=              0.3487   XZ=              0.0000   YZ=             -0.0000

 Normal termination of Gaussian 09 at Thu Feb 23 13:06:29 2017.
