 Gaussian 09, Revision E.01,
 Gaussian 09:  ES64L-G09RevE.01 30-Nov-2015

 ----------------------------------------------------------------------
 #uhf/gen scf(tight,novaracc,noincfock,fulldiag, ) stable(crhf) guess=m
 ix geom=nocrowd test
 ----------------------------------------------------------------------

 hf stability analysis of h10 triangular lattice, y= 0.3108300229040507
 6 alpha= 9.5000000000000000
 ----------------------------------------------------------------------
 Symbolic Z-matrix:
 Charge =  0 Multiplicity = 3

                         Standard orientation:
 ---------------------------------------------------------------------
 Center     Atomic      Atomic             Coordinates (Angstroms)
 Number     Number       Type             X           Y           Z
 ---------------------------------------------------------------------
      1          1           0        1.226269   -2.619705    0.000000
      2          1           0        1.226269   -4.502980    0.000000
      3          1           0        0.613134   -0.839034    0.000000
      4          1           0        0.613134   -2.722309    0.000000
      5          1           0       -0.000000    0.941637    0.000000
      6          1           0       -0.000000   -0.941637    0.000000
      7          1           0       -0.613134    2.722309    0.000000
      8          1           0       -0.613134    0.839034    0.000000
      9          1           0       -1.226269    4.502980    0.000000
     10          1           0       -1.226269    2.619705    0.000000
 ---------------------------------------------------------------------

 SCF Done:  E(UHF) =  -5.16432151880     A.U. after   12 cycles
 E2 =    -0.3642318020D-01 EUMP2 =    -0.52007446990017D+01

 The electronic state is 3-BU.
 Alpha  occ. eigenvalues --   -0.73547  -0.70676  -0.65741  -0.59649  -0.47708
 Alpha  occ. eigenvalues --   -0.47394
 Alpha virt. eigenvalues --    0.36851   0.44662   0.56336   0.67747
  Beta  occ. eigenvalues --   -0.73149  -0.69534  -0.64122  -0.58494
  Beta virt. eigenvalues --    0.15043   0.15103   0.36979   0.44960   0.56639
  Beta virt. eigenvalues --    0.67885

 Mulliken charges and spin densities:
               1          2
     1  H   -0.002459  -0.001356
     2  H    0.003729   1.003673
     3  H   -0.000296  -0.000416
     4  H   -0.001711  -0.002784
     5  H    0.000738   0.000883
     6  H    0.000738   0.000883
     7  H   -0.001711  -0.002784
     8  H   -0.000296  -0.000416
     9  H    0.003729   1.003673
    10  H   -0.002459  -0.001356
 Sum of Mulliken charges =  -0.00000   2.00000

 Dipole moment (field-independent basis, Debye):
    X=              0.0000    Y=              0.0000    Z=              0.0000  Tot=              0.0000
 Quadrupole moment (field-independent basis, Debye-Ang):
   XX=            -12.1772   YY=            -16.5230   ZZ=            -13.1401
   XY=              1.2237   XZ=              0.0000   YZ=              0.0000

 Normal termination of Gaussian 09 at Thu Feb 23 12:57:22 2017.
