 Gaussian 09, Revision E.01,
 Gaussian 09:  ES64L-G09RevE.01 30-Nov-2015

 ----------------------------------------------------------------------
 #uhf/gen scf(tight,novaracc,noincfock,fulldiag, ) stable(crhf) guess=m
 ix geom=nocrowd test
 ----------------------------------------------------------------------

 hf stability analysis of h10 triangular lattice, y= 0.4001417309484786
 0 alpha= 15.500000000000000
 ----------------------------------------------------------------------
 Symbolic Z-matrix:
 Charge =  0 Multiplicity = 3

                         Standard orientation:
 ---------------------------------------------------------------------
 Center     Atomic      Atomic             Coordinates (Angstroms)
 Number     Number       Type             X           Y           Z
 ---------------------------------------------------------------------
      1          1           0        1.542355   -1.818249    0.000000
      2          1           0        1.542355   -3.315570    0.000000
      3          1           0        0.771177   -0.534794    0.000000
      4          1           0        0.771177   -2.032116    0.000000
      5          1           0        0.000000    0.748661    0.000000
      6          1           0       -0.000000   -0.748661    0.000000
      7          1           0       -0.771177    2.032116   -0.000000
      8          1           0       -0.771177    0.534794   -0.000000
      9          1           0       -1.542355    3.315570   -0.000000
     10          1           0       -1.542355    1.818249   -0.000000
 ---------------------------------------------------------------------

 SCF Done:  E(UHF) =  -5.08949630615     A.U. after   18 cycles
 E2 =    -0.5340377446D-01 EUMP2 =    -0.51429000806097D+01

 The electronic state is 3-BU.
 Alpha  occ. eigenvalues --   -0.76777  -0.71509  -0.62495  -0.50885  -0.39701
 Alpha  occ. eigenvalues --   -0.34248
 Alpha virt. eigenvalues --    0.18314   0.29082   0.45761   0.63022
  Beta  occ. eigenvalues --   -0.75576  -0.68353  -0.56583  -0.42261
  Beta virt. eigenvalues --    0.18214   0.19795   0.21698   0.30219   0.47283
  Beta virt. eigenvalues --    0.63912

 Mulliken charges and spin densities:
               1          2
     1  H   -0.010225   0.057204
     2  H   -0.037600   0.959717
     3  H    0.007816  -0.039504
     4  H    0.036643  -0.027676
     5  H    0.003366   0.050259
     6  H    0.003366   0.050259
     7  H    0.036643  -0.027676
     8  H    0.007816  -0.039504
     9  H   -0.037600   0.959717
    10  H   -0.010225   0.057204
 Sum of Mulliken charges =   0.00000   2.00000

 Dipole moment (field-independent basis, Debye):
    X=              0.0000    Y=              0.0000    Z=              0.0000  Tot=              0.0000
 Quadrupole moment (field-independent basis, Debye-Ang):
   XX=            -13.1557   YY=            -20.6273   ZZ=            -12.6957
   XY=              4.6743   XZ=             -0.0000   YZ=              0.0000

 Normal termination of Gaussian 09 at Thu Feb 23 12:58:41 2017.
