 Gaussian 09, Revision E.01,
 Gaussian 09:  ES64L-G09RevE.01 30-Nov-2015

 ----------------------------------------------------------------------
 #uhf/gen scf(tight,novaracc,noincfock,fulldiag, ) stable(crhf) guess=m
 ix geom=nocrowd test
 ----------------------------------------------------------------------

 hf stability analysis of h10 triangular lattice, y= 0.6417319999662348
 7 alpha= 35.500000000000000
 ----------------------------------------------------------------------
 Symbolic Z-matrix:
 Charge =  0 Multiplicity = 3

                         Standard orientation:
 ---------------------------------------------------------------------
 Center     Atomic      Atomic             Coordinates (Angstroms)
 Number     Number       Type             X           Y           Z
 ---------------------------------------------------------------------
      1          1           0        2.089776   -0.167020    0.000000
      2          1           0        2.089776   -1.272115    0.000000
      3          1           0        1.044888    0.192764   -0.000000
      4          1           0        1.044888   -0.912331    0.000000
      5          1           0        0.000000    0.552548   -0.000000
      6          1           0       -0.000000   -0.552548   -0.000000
      7          1           0       -1.044888    0.912331    0.000000
      8          1           0       -1.044888   -0.192764   -0.000000
      9          1           0       -2.089776    1.272115    0.000000
     10          1           0       -2.089776    0.167020   -0.000000
 ---------------------------------------------------------------------

 SCF Done:  E(UHF) =  -4.90907216190     A.U. after   23 cycles
 E2 =    -0.7447435261D-01 EUMP2 =    -0.49835465145097D+01

 The electronic state is 3-BU.
 Alpha  occ. eigenvalues --   -0.89371  -0.80778  -0.58635  -0.46522  -0.35731
 Alpha  occ. eigenvalues --   -0.34545
 Alpha virt. eigenvalues --    0.15915   0.24185   0.47611   0.72519
  Beta  occ. eigenvalues --   -0.83522  -0.66981  -0.49004  -0.37880
  Beta virt. eigenvalues --    0.02416   0.03849   0.25576   0.35900   0.59446
  Beta virt. eigenvalues --    0.79119

 Mulliken charges and spin densities:
               1          2
     1  H    0.019992   0.225423
     2  H    0.026095   0.425432
     3  H   -0.011262   0.312012
     4  H    0.001800   0.240071
     5  H   -0.036624  -0.202938
     6  H   -0.036624  -0.202938
     7  H    0.001800   0.240071
     8  H   -0.011262   0.312012
     9  H    0.026095   0.425432
    10  H    0.019992   0.225423
 Sum of Mulliken charges =   0.00000   2.00000

 Dipole moment (field-independent basis, Debye):
    X=              0.0000    Y=              0.0000    Z=              0.0000  Tot=              0.0000
 Quadrupole moment (field-independent basis, Debye-Ang):
   XX=            -12.9874   YY=            -15.1469   ZZ=            -12.9064
   XY=             -1.1273   XZ=             -0.0000   YZ=             -0.0000

 Normal termination of Gaussian 09 at Thu Feb 23 13:03:22 2017.
