 Gaussian 09, Revision E.01,
 Gaussian 09:  ES64L-G09RevE.01 30-Nov-2015

 ----------------------------------------------------------------------
 #uhf/gen scf(tight,novaracc,noincfock,fulldiag, ) stable(crhf) guess=m
 ix geom=nocrowd test
 ----------------------------------------------------------------------

 hf stability analysis of h10 triangular lattice, y= 0.3650915174764740
 0 alpha= 13.000000000000000
 ----------------------------------------------------------------------
 Symbolic Z-matrix:
 Charge =  0 Multiplicity = 1

                         Standard orientation:
 ---------------------------------------------------------------------
 Center     Atomic      Atomic             Coordinates (Angstroms)
 Number     Number       Type             X           Y           Z
 ---------------------------------------------------------------------
      1          1           0        1.422937   -2.105962   -0.000000
      2          1           0        1.422937   -3.728944   -0.000000
      3          1           0        0.711468   -0.647236   -0.000000
      4          1           0        0.711468   -2.270218   -0.000000
      5          1           0        0.000000    0.811491    0.000000
      6          1           0       -0.000000   -0.811491    0.000000
      7          1           0       -0.711468    2.270218   -0.000000
      8          1           0       -0.711468    0.647236   -0.000000
      9          1           0       -1.422937    3.728944   -0.000000
     10          1           0       -1.422937    2.105962   -0.000000
 ---------------------------------------------------------------------

 SCF Done:  E(UHF) =  -5.17827686259     A.U. after   11 cycles
 E2 =    -0.4622787281D-01 EUMP2 =    -0.52245047353966D+01

 Unable to determine electronic state:  partially filled degenerate orbitals.
 Alpha  occ. eigenvalues --   -0.74701  -0.69715  -0.61390  -0.51001  -0.41891
 Alpha virt. eigenvalues --    0.17882   0.25343   0.35183   0.50300   0.65473
  Beta  occ. eigenvalues --   -0.74701  -0.69715  -0.61390  -0.51001  -0.41891
  Beta virt. eigenvalues --    0.17882   0.25343   0.35183   0.50300   0.65473

 Mulliken charges and spin densities:
               1          2
     1  H   -0.004860   0.012336
     2  H   -0.011196   0.988245
     3  H    0.001095  -0.005913
     4  H    0.012176  -0.004548
     5  H    0.002785  -0.009182
     6  H    0.002785   0.009182
     7  H    0.012176   0.004548
     8  H    0.001095   0.005913
     9  H   -0.011196  -0.988245
    10  H   -0.004860  -0.012336
 Sum of Mulliken charges =  -0.00000  -0.00000

 Dipole moment (field-independent basis, Debye):
    X=              0.0000    Y=             -0.0000    Z=              0.0000  Tot=              0.0000
 Quadrupole moment (field-independent basis, Debye-Ang):
   XX=            -12.3524   YY=            -18.8263   ZZ=            -12.8538
   XY=              2.9217   XZ=             -0.0000   YZ=              0.0000

 Normal termination of Gaussian 09 at Thu Feb 23 12:55:15 2017.
