 Gaussian 09, Revision E.01,
 Gaussian 09:  ES64L-G09RevE.01 30-Nov-2015

 ----------------------------------------------------------------------
 #uhf/gen scf(tight,novaracc,noincfock,fulldiag, ) stable(crhf) guess=m
 ix geom=nocrowd test
 ----------------------------------------------------------------------

 hf stability analysis of h10 triangular lattice, y= 0.6417319999662348
 7 alpha= 35.500000000000000
 ----------------------------------------------------------------------
 Symbolic Z-matrix:
 Charge =  0 Multiplicity = 1

                         Standard orientation:
 ---------------------------------------------------------------------
 Center     Atomic      Atomic             Coordinates (Angstroms)
 Number     Number       Type             X           Y           Z
 ---------------------------------------------------------------------
      1          1           0        2.089776   -0.167020    0.000000
      2          1           0        2.089776   -1.272115    0.000000
      3          1           0        1.044888    0.192764   -0.000000
      4          1           0        1.044888   -0.912331    0.000000
      5          1           0        0.000000    0.552548   -0.000000
      6          1           0       -0.000000   -0.552548   -0.000000
      7          1           0       -1.044888    0.912331    0.000000
      8          1           0       -1.044888   -0.192764   -0.000000
      9          1           0       -2.089776    1.272115    0.000000
     10          1           0       -2.089776    0.167020   -0.000000
 ---------------------------------------------------------------------

 SCF Done:  E(UHF) =  -4.93329153848     A.U. after   16 cycles
 E2 =    -0.5331698009D-01 EUMP2 =    -0.49866085185675D+01

 Unable to determine electronic state:  partially filled degenerate orbitals.
 Alpha  occ. eigenvalues --   -0.86251  -0.74539  -0.56150  -0.42105  -0.37130
 Alpha virt. eigenvalues --    0.05295   0.21921   0.32134   0.54642   0.76129
  Beta  occ. eigenvalues --   -0.86251  -0.74539  -0.56150  -0.42105  -0.37130
  Beta virt. eigenvalues --    0.05295   0.21921   0.32134   0.54642   0.76129

 Mulliken charges and spin densities:
               1          2
     1  H   -0.002481   0.531711
     2  H    0.045352  -0.591529
     3  H   -0.045720  -0.497628
     4  H    0.015165   0.501067
     5  H   -0.012317   0.318993
     6  H   -0.012317  -0.318993
     7  H    0.015165  -0.501067
     8  H   -0.045720   0.497628
     9  H    0.045352   0.591529
    10  H   -0.002481  -0.531711
 Sum of Mulliken charges =  -0.00000   0.00000

 Dipole moment (field-independent basis, Debye):
    X=              0.0000    Y=             -0.0000    Z=              0.0000  Tot=              0.0000
 Quadrupole moment (field-independent basis, Debye-Ang):
   XX=            -13.7191   YY=            -14.3599   ZZ=            -12.8344
   XY=             -1.7842   XZ=             -0.0000   YZ=             -0.0000

 Normal termination of Gaussian 09 at Thu Feb 23 13:00:18 2017.
