 Gaussian 09, Revision E.01,
 Gaussian 09:  ES64L-G09RevE.01 30-Nov-2015

 ----------------------------------------------------------------------
 #uhf/gen scf(tight,novaracc,noincfock,fulldiag, ) stable(crhf) guess=m
 ix geom=nocrowd test
 ----------------------------------------------------------------------

 hf stability analysis of h10 triangular lattice, y= 0.2357806384192915
 3 alpha= 5.5000000000000000
 ----------------------------------------------------------------------
 Symbolic Z-matrix:
 Charge =  0 Multiplicity = 1

                         Standard orientation:
 ---------------------------------------------------------------------
 Center     Atomic      Atomic             Coordinates (Angstroms)
 Number     Number       Type             X           Y           Z
 ---------------------------------------------------------------------
      1          1           0        0.938781   -3.599607    0.000000
      2          1           0        0.938781   -6.059608    0.000000
      3          1           0        0.469390   -1.184803    0.000000
      4          1           0        0.469390   -3.644804    0.000000
      5          1           0       -0.000000    1.230000   -0.000000
      6          1           0       -0.000000   -1.230000   -0.000000
      7          1           0       -0.469390    3.644804    0.000000
      8          1           0       -0.469390    1.184803    0.000000
      9          1           0       -0.938781    6.059608    0.000000
     10          1           0       -0.938781    3.599607    0.000000
 ---------------------------------------------------------------------

 SCF Done:  E(UHF) =  -4.67411414336     A.U. after    7 cycles
 E2 =    -0.2670748672D-01 EUMP2 =    -0.47008216300759D+01

 Unable to determine electronic state:  partially filled degenerate orbitals.
 Alpha  occ. eigenvalues --   -0.73905  -0.72920  -0.71573  -0.70375  -0.49802
 Alpha virt. eigenvalues --    0.13067   0.56937   0.61326   0.67304   0.72641
  Beta  occ. eigenvalues --   -0.73905  -0.72920  -0.71573  -0.70375  -0.49802
  Beta virt. eigenvalues --    0.13067   0.56937   0.61326   0.67304   0.72641

 Mulliken charges and spin densities:
               1          2
     1  H   -0.000775  -0.001266
     2  H    0.002546   1.002545
     3  H   -0.000062  -0.000006
     4  H   -0.001769  -0.001279
     5  H    0.000061  -0.000006
     6  H    0.000061   0.000006
     7  H   -0.001769   0.001279
     8  H   -0.000062   0.000006
     9  H    0.002546  -1.002545
    10  H   -0.000775   0.001266
 Sum of Mulliken charges =  -0.00000   0.00000

 Dipole moment (field-independent basis, Debye):
    X=             -0.0000    Y=              0.0000    Z=              0.0000  Tot=              0.0000
 Quadrupole moment (field-independent basis, Debye-Ang):
   XX=            -12.7282   YY=            -14.5283   ZZ=            -13.4899
   XY=              0.2487   XZ=              0.0000   YZ=             -0.0000

 Normal termination of Gaussian 09 at Thu Feb 23 12:53:39 2017.
