 Gaussian 09, Revision E.01,
 Gaussian 09:  ES64L-G09RevE.01 30-Nov-2015

 ----------------------------------------------------------------------
 #uhf/gen scf(tight,novaracc,noincfock,fulldiag, ) stable(crhf) guess=m
 ix geom=nocrowd test
 ----------------------------------------------------------------------

 hf stability analysis of h10 triangular lattice, y= 1.9654877006520655
  alpha= 81.500000000000000
 ----------------------------------------------------------------------
 Symbolic Z-matrix:
 Charge =  0 Multiplicity = 1

                         Standard orientation:
 ---------------------------------------------------------------------
 Center     Atomic      Atomic             Coordinates (Angstroms)
 Number     Number       Type             X           Y           Z
 ---------------------------------------------------------------------
      1          1           0        1.162070    4.794619    0.000000
      2          1           0        1.162070    2.807302    0.000000
      3          1           0        0.581035    2.894139    0.000000
      4          1           0        0.581035    0.906822    0.000000
      5          1           0        0.000000    0.993658    0.000000
      6          1           0       -0.000000   -0.993658    0.000000
      7          1           0       -0.581035   -0.906822    0.000000
      8          1           0       -0.581035   -2.894139    0.000000
      9          1           0       -1.162070   -2.807302    0.000000
     10          1           0       -1.162070   -4.794619    0.000000
 ---------------------------------------------------------------------

 SCF Done:  E(UHF) =  -5.10950355164     A.U. after    8 cycles
 E2 =    -0.3382289213D-01 EUMP2 =    -0.51433264437622D+01

 Unable to determine electronic state:  partially filled degenerate orbitals.
 Alpha  occ. eigenvalues --   -0.73222  -0.70529  -0.66320  -0.61774  -0.48459
 Alpha virt. eigenvalues --    0.14441   0.41007   0.48189   0.58630   0.68592
  Beta  occ. eigenvalues --   -0.73222  -0.70529  -0.66320  -0.61774  -0.48459
  Beta virt. eigenvalues --    0.14441   0.41007   0.48189   0.58630   0.68592

 Mulliken charges and spin densities:
               1          2
     1  H    0.004550   1.004525
     2  H   -0.001994  -0.002068
     3  H   -0.002738  -0.002656
     4  H   -0.000264  -0.000191
     5  H    0.000447   0.000377
     6  H    0.000447  -0.000377
     7  H   -0.000264   0.000191
     8  H   -0.002738   0.002656
     9  H   -0.001994   0.002068
    10  H    0.004550  -1.004525
 Sum of Mulliken charges =  -0.00000  -0.00000

 Dipole moment (field-independent basis, Debye):
    X=              0.0000    Y=              0.0000    Z=              0.0000  Tot=              0.0000
 Quadrupole moment (field-independent basis, Debye-Ang):
   XX=            -12.2656   YY=            -15.9559   ZZ=            -13.2311
   XY=             -0.8934   XZ=              0.0000   YZ=              0.0000

 Normal termination of Gaussian 09 at Thu Feb 23 13:10:53 2017.
