 Gaussian 09, Revision E.01,
 Gaussian 09:  ES64L-G09RevE.01 30-Nov-2015

 ----------------------------------------------------------------------
 #uhf/gen scf(tight,novaracc,noincfock,fulldiag, ) stable(crhf) guess=m
 ix geom=nocrowd test
 ----------------------------------------------------------------------

 hf stability analysis of h10 triangular lattice, y= 0.9900233955345416
 6 alpha= 59.500000000000000
 ----------------------------------------------------------------------
 Symbolic Z-matrix:
 Charge =  0 Multiplicity = 1

                         Standard orientation:
 ---------------------------------------------------------------------
 Center     Atomic      Atomic             Coordinates (Angstroms)
 Number     Number       Type             X           Y           Z
 ---------------------------------------------------------------------
      1          1           0        2.009899    1.688612   -0.000000
      2          1           0        2.009899    0.539599   -0.000000
      3          1           0        1.004950    1.131559   -0.000000
      4          1           0        1.004950   -0.017454    0.000000
      5          1           0       -0.000000    0.574507   -0.000000
      6          1           0       -0.000000   -0.574507   -0.000000
      7          1           0       -1.004950    0.017454   -0.000000
      8          1           0       -1.004950   -1.131559   -0.000000
      9          1           0       -2.009899   -0.539599   -0.000000
     10          1           0       -2.009899   -1.688612   -0.000000
 ---------------------------------------------------------------------

 SCF Done:  E(UHF) =  -4.89778768636     A.U. after   19 cycles
 E2 =    -0.6718050706D-01 EUMP2 =    -0.49649681934296D+01

 Unable to determine electronic state:  partially filled degenerate orbitals.
 Alpha  occ. eigenvalues --   -0.84979  -0.73944  -0.56257  -0.36909  -0.35058
 Alpha virt. eigenvalues --    0.04130   0.20851   0.28175   0.55137   0.60745
  Beta  occ. eigenvalues --   -0.84979  -0.73944  -0.56257  -0.36909  -0.35058
  Beta virt. eigenvalues --    0.04130   0.20851   0.28175   0.55137   0.60745

 Mulliken charges and spin densities:
               1          2
     1  H    0.003137  -0.544284
     2  H    0.028062   0.443349
     3  H    0.067341   0.389901
     4  H   -0.084570  -0.302134
     5  H   -0.013969  -0.111045
     6  H   -0.013969   0.111045
     7  H   -0.084570   0.302134
     8  H    0.067341  -0.389901
     9  H    0.028062  -0.443349
    10  H    0.003137   0.544284
 Sum of Mulliken charges =  -0.00000  -0.00000

 Dipole moment (field-independent basis, Debye):
    X=             -0.0000    Y=             -0.0000    Z=             -0.0000  Tot=              0.0000
 Quadrupole moment (field-independent basis, Debye-Ang):
   XX=            -14.2700   YY=            -13.9246   ZZ=            -12.9172
   XY=              1.2262   XZ=             -0.0000   YZ=              0.0000

 Normal termination of Gaussian 09 at Thu Feb 23 13:05:56 2017.
