 Gaussian 09, Revision E.01,
 Gaussian 09:  ES64L-G09RevE.01 30-Nov-2015

 ----------------------------------------------------------------------
 #rhf/gen scf(symm,tight,novaracc,noincfock,fulldiag) stable(crhf) gues
 s=read geom=nocrowd test
 ----------------------------------------------------------------------

 hf stability analysis of h10 triangular lattice, y= 0.6123199016056329
 9
 ----------------------------------------------------------------------
 Symbolic Z-matrix:
 Charge =  0 Multiplicity = 1

                         Standard orientation:
 ---------------------------------------------------------------------
 Center     Atomic      Atomic             Coordinates (Angstroms)
 Number     Number       Type             X           Y           Z
 ---------------------------------------------------------------------
      1          1           0        2.054139   -0.352428   -0.000000
      2          1           0        2.054139   -1.476695   -0.000000
      3          1           0        1.027069    0.104853   -0.000000
      4          1           0        1.027069   -1.019414   -0.000000
      5          1           0        0.000000    0.562134    0.000000
      6          1           0       -0.000000   -0.562134    0.000000
      7          1           0       -1.027069    1.019414   -0.000000
      8          1           0       -1.027069   -0.104853   -0.000000
      9          1           0       -2.054139    1.476695   -0.000000
     10          1           0       -2.054139    0.352428   -0.000000
 ---------------------------------------------------------------------

 SCF Done:  E(RHF) =  -4.79811082950     A.U. after   10 cycles
 E2 =    -0.1113091202D+00 EUMP2 =    -0.49094199497278D+01

 The electronic state is 1-AG.
 Alpha  occ. eigenvalues --   -0.85797  -0.73346  -0.53328  -0.42163  -0.26712
 Alpha virt. eigenvalues --   -0.05298   0.20329   0.27330   0.55031   0.67144

 Mulliken charges:
               1
     1  H   -0.084969
     2  H    0.146302
     3  H   -0.058954
     4  H   -0.010828
     5  H    0.008450
     6  H    0.008450
     7  H   -0.010828
     8  H   -0.058954
     9  H    0.146302
    10  H   -0.084969
 Sum of Mulliken charges =  -0.00000

 Dipole moment (field-independent basis, Debye):
    X=             -0.0000    Y=              0.0000    Z=             -0.0000  Tot=              0.0000
 Quadrupole moment (field-independent basis, Debye-Ang):
   XX=            -11.6629   YY=            -13.7953   ZZ=            -12.9783
   XY=             -5.5218   XZ=             -0.0000   YZ=             -0.0000

 Normal termination of Gaussian 09 at Thu Feb  9 17:32:15 2017.
