 Gaussian 09, Revision E.01,
 Gaussian 09:  ES64L-G09RevE.01 30-Nov-2015

 ----------------------------------------------------------------------
 #rhf/gen scf(symm,tight,novaracc,noincfock,fulldiag) stable(crhf) gues
 s=read geom=nocrowd test
 ----------------------------------------------------------------------

 hf stability analysis of h10 triangular lattice, y= 0.5540600992415728
 5
 ----------------------------------------------------------------------
 Symbolic Z-matrix:
 Charge =  0 Multiplicity = 1

                         Standard orientation:
 ---------------------------------------------------------------------
 Center     Atomic      Atomic             Coordinates (Angstroms)
 Number     Number       Type             X           Y           Z
 ---------------------------------------------------------------------
      1          1           0        1.956824   -0.729805    0.000000
      2          1           0        1.956824   -1.909984    0.000000
      3          1           0        0.978412   -0.069858    0.000000
      4          1           0        0.978412   -1.250036    0.000000
      5          1           0        0.000000    0.590089    0.000000
      6          1           0       -0.000000   -0.590089   -0.000000
      7          1           0       -0.978412    1.250036    0.000000
      8          1           0       -0.978412    0.069858    0.000000
      9          1           0       -1.956824    1.909984    0.000000
     10          1           0       -1.956824    0.729805    0.000000
 ---------------------------------------------------------------------

 SCF Done:  E(RHF) =  -4.69882662409     A.U. after   10 cycles
 E2 =    -0.1213163913D+00 EUMP2 =    -0.48201430153997D+01

 The electronic state is 1-AG.
 Alpha  occ. eigenvalues --   -0.84623  -0.72616  -0.54179  -0.37564  -0.22591
 Alpha virt. eigenvalues --   -0.07405   0.20774   0.23384   0.49818   0.56116

 Mulliken charges:
               1
     1  H   -0.085859
     2  H    0.099697
     3  H   -0.134105
     4  H    0.037009
     5  H    0.083258
     6  H    0.083258
     7  H    0.037009
     8  H   -0.134105
     9  H    0.099697
    10  H   -0.085859
 Sum of Mulliken charges =  -0.00000

 Dipole moment (field-independent basis, Debye):
    X=              0.0000    Y=             -0.0000    Z=              0.0000  Tot=              0.0000
 Quadrupole moment (field-independent basis, Debye-Ang):
   XX=            -14.3746   YY=            -12.1310   ZZ=            -12.9690
   XY=             -4.6297   XZ=             -0.0000   YZ=              0.0000

 Normal termination of Gaussian 09 at Thu Feb  9 17:32:05 2017.
