 Gaussian 09, Revision E.01,
 Gaussian 09:  ES64L-G09RevE.01 30-Nov-2015

 ----------------------------------------------------------------------
 #t rhf/gen scf(tight,novaracc,noincfock) stable(crhf) guess=mix geom=n
 ocrowd test
 ----------------------------------------------------------------------

 scf stability calculation for a triangular configuration of 10 H atoms
  (made up of 8 iscosceles triangles)
 ----------------------------------------------------------------------
 Symbolic Z-matrix:
 Charge =  0 Multiplicity = 1

                         Standard orientation:
 ---------------------------------------------------------------------
 Center     Atomic      Atomic             Coordinates (Angstroms)
 Number     Number       Type             X           Y           Z
 ---------------------------------------------------------------------
      1          1           0        4.980000   -0.231867   -0.000000
      2          1           0        4.980000   -0.695601   -0.000000
      3          1           0        2.490000    0.000000   -0.000000
      4          1           0        2.490000   -0.463734   -0.000000
      5          1           0        0.000000    0.231867    0.000000
      6          1           0       -0.000000   -0.231867   -0.000000
      7          1           0       -2.490000    0.463734    0.000000
      8          1           0       -2.490000    0.000000    0.000000
      9          1           0       -4.980000    0.695601    0.000000
     10          1           0       -4.980000    0.231867    0.000000
 ---------------------------------------------------------------------

 SCF Done:  E(RHF) =  -4.53535890539     A.U. after    8 cycles
 E2 =    -0.3281863625D-01 EUMP2 =    -0.45681775416396D+01

 The electronic state is 1-AG.
 Alpha  occ. eigenvalues --   -0.74142  -0.73470  -0.72470  -0.71505  -0.70770
 Alpha virt. eigenvalues --    0.57623   0.60595   0.65020   0.69795   0.73600

 Mulliken charges:
               1
     1  H   -0.000456
     2  H    0.000457
     3  H    0.000177
     4  H   -0.000178
     5  H    0.000000
     6  H    0.000000
     7  H   -0.000178
     8  H    0.000177
     9  H    0.000457
    10  H   -0.000456
 Sum of Mulliken charges =  -0.00000

 Dipole moment (field-independent basis, Debye):
    X=              0.0000    Y=             -0.0000    Z=              0.0000  Tot=              0.0000

 Test job not archived.
 1\1\GINC-SULU\Stability\RHF\Gen\H10\LCJ1\05-Feb-2017\0\\#t rhf/gen scf
 (tight,novaracc,noincfock) stable(crhf) guess=mix geom=nocrowd test\\s
 cf stability calculation for a triangular configuration of 10 H atoms
 (made up of 8 iscosceles triangles)\\0,1\H,0,0.231867,0.,4.98\H,0,0.69
 5601,0.,4.98\H,0,0.,0.,2.49\H,0,0.463734,0.,2.49\H,0,-0.231867,0.,0.\H
 ,0,0.231867,0.,0.\H,0,-0.463734,0.,-2.49\H,0,0.,0.,-2.49\H,0,-0.695601
 ,0.,-4.98\H,0,-0.231867,0.,-4.98\\Version=ES64L-G09RevE.01\State=1-AG\
 HF=-4.5353589\MP2=-4.5681775\RMSD=7.758e-11\Dipole=0.,0.,0.\Quadrupole

 Normal termination of Gaussian 09 at Sun Feb  5 19:02:14 2017.
