 Gaussian 09, Revision E.01,
 Gaussian 09:  ES64L-G09RevE.01 30-Nov-2015

 ----------------------------------------------------------------------
 #rhf/gen scf(symm,tight,novaracc,noincfock,fulldiag) stable(crhf) gues
 s=read geom=nocrowd test
 ----------------------------------------------------------------------

 hf stability analysis of h12 triangular lattice, y= 0.8007574317254395
 6 alpha= 48.000000000000000
 ----------------------------------------------------------------------
 Symbolic Z-matrix:
 Charge =  0 Multiplicity = 1

                         Standard orientation:
 ---------------------------------------------------------------------
 Center     Atomic      Atomic             Coordinates (Angstroms)
 Number     Number       Type             X           Y           Z
 ---------------------------------------------------------------------
      1          1           0        2.402272    1.442010   -0.000000
      2          1           0        1.601515    2.163016   -0.000000
      3          1           0        1.601515    0.721005   -0.000000
      4          1           0        0.800757    1.442010   -0.000000
      5          1           0        0.800757    0.000000   -0.000000
      6          1           0        0.000000    0.721005   -0.000000
      7          1           0       -0.000000   -0.721005    0.000000
      8          1           0       -0.800757    0.000000    0.000000
      9          1           0       -0.800757   -1.442010    0.000000
     10          1           0       -1.601515   -0.721005    0.000000
     11          1           0       -1.601515   -2.163016    0.000000
     12          1           0       -2.402272   -1.442010    0.000000
 ---------------------------------------------------------------------

 SCF Done:  E(RHF) =  -5.93946992052     A.U. after   10 cycles
 E2 =    -0.1264080526D+00 EUMP2 =    -0.60658779731676D+01

 The electronic state is 1-AG.
 Alpha  occ. eigenvalues --   -0.88954  -0.79735  -0.63599  -0.46601  -0.42801
 Alpha  occ. eigenvalues --   -0.34506
 Alpha virt. eigenvalues --    0.05090   0.06895   0.30391   0.41350   0.63158
 Alpha virt. eigenvalues --    0.94100

 Mulliken charges:
               1
     1  H    0.025732
     2  H    0.032011
     3  H    0.007737
     4  H   -0.055327
     5  H   -0.056287
     6  H    0.046134
     7  H    0.046134
     8  H   -0.056287
     9  H   -0.055327
    10  H    0.007737
    11  H    0.032011
    12  H    0.025732
 Sum of Mulliken charges =  -0.00000

 Dipole moment (field-independent basis, Debye):
    X=              0.0000    Y=              0.0000    Z=              0.0000  Tot=              0.0000
 Quadrupole moment (field-independent basis, Debye-Ang):
   XX=            -16.4773   YY=            -17.3272   ZZ=            -15.5320
   XY=              2.4891   XZ=             -0.0000   YZ=              0.0000

 Normal termination of Gaussian 09 at Fri Feb 10 12:37:41 2017.
