 Gaussian 09, Revision E.01,
 Gaussian 09:  ES64L-G09RevE.01 30-Nov-2015

 ----------------------------------------------------------------------
 #rhf/gen scf(symm,tight,novaracc,noincfock,fulldiag) stable(crhf) gues
 s=read geom=nocrowd test
 ----------------------------------------------------------------------

 hf stability analysis of h12 triangular lattice, y= 1.0420355127918348
  alpha= 62.000000000000000
 ----------------------------------------------------------------------
 Symbolic Z-matrix:
 Charge =  0 Multiplicity = 1

                         Standard orientation:
 ---------------------------------------------------------------------
 Center     Atomic      Atomic             Coordinates (Angstroms)
 Number     Number       Type             X           Y           Z
 ---------------------------------------------------------------------
      1          1           0        3.126106    1.108120   -0.000000
      2          1           0        2.084071    1.662180    0.000000
      3          1           0        2.084071    0.554060   -0.000000
      4          1           0        1.042035    1.108120    0.000000
      5          1           0        1.042035    0.000000   -0.000000
      6          1           0        0.000000    0.554060    0.000000
      7          1           0       -0.000000   -0.554060   -0.000000
      8          1           0       -1.042035    0.000000   -0.000000
      9          1           0       -1.042035   -1.108120   -0.000000
     10          1           0       -2.084071   -0.554060   -0.000000
     11          1           0       -2.084071   -1.662180   -0.000000
     12          1           0       -3.126106   -1.108120   -0.000000
 ---------------------------------------------------------------------

 SCF Done:  E(RHF) =  -5.81631827016     A.U. after   12 cycles
 E2 =    -0.1340456111D+00 EUMP2 =    -0.59503638813046D+01

 The electronic state is 1-AG.
 Alpha  occ. eigenvalues --   -0.85868  -0.77927  -0.64892  -0.45480  -0.35931
 Alpha  occ. eigenvalues --   -0.27509
 Alpha virt. eigenvalues --    0.00580   0.08901   0.27286   0.33719   0.53779
 Alpha virt. eigenvalues --    0.61291

 Mulliken charges:
               1
     1  H   -0.069111
     2  H    0.111757
     3  H    0.174716
     4  H   -0.234340
     5  H   -0.146100
     6  H    0.163076
     7  H    0.163076
     8  H   -0.146100
     9  H   -0.234340
    10  H    0.174716
    11  H    0.111757
    12  H   -0.069111
 Sum of Mulliken charges =   0.00000

 Dipole moment (field-independent basis, Debye):
    X=             -0.0000    Y=             -0.0000    Z=              0.0000  Tot=              0.0000
 Quadrupole moment (field-independent basis, Debye-Ang):
   XX=            -16.4276   YY=            -17.8789   ZZ=            -15.6388
   XY=              1.8989   XZ=              0.0000   YZ=              0.0000

 Normal termination of Gaussian 09 at Fri Feb 10 12:38:15 2017.
