 Gaussian 09, Revision E.01,
 Gaussian 09:  ES64L-G09RevE.01 30-Nov-2015

 ----------------------------------------------------------------------
 #rhf/gen scf(symm,tight,novaracc,noincfock,fulldiag) stable(crhf) gues
 s=read geom=nocrowd test
 ----------------------------------------------------------------------

 hf stability analysis of h12 triangular lattice, y= 1.1662555983306084
  alpha= 67.000000000000000
 ----------------------------------------------------------------------
 Symbolic Z-matrix:
 Charge =  0 Multiplicity = 1

                         Standard orientation:
 ---------------------------------------------------------------------
 Center     Atomic      Atomic             Coordinates (Angstroms)
 Number     Number       Type             X           Y           Z
 ---------------------------------------------------------------------
      1          1           0        3.498767    0.990092    0.000000
      2          1           0        2.332511    1.485138    0.000000
      3          1           0        2.332511    0.495046    0.000000
      4          1           0        1.166256    0.990092    0.000000
      5          1           0        1.166256    0.000000    0.000000
      6          1           0        0.000000    0.495046   -0.000000
      7          1           0       -0.000000   -0.495046    0.000000
      8          1           0       -1.166256    0.000000    0.000000
      9          1           0       -1.166256   -0.990092    0.000000
     10          1           0       -2.332511   -0.495046    0.000000
     11          1           0       -2.332511   -1.485138    0.000000
     12          1           0       -3.498767   -0.990092    0.000000
 ---------------------------------------------------------------------

 SCF Done:  E(RHF) =  -5.75888271583     A.U. after   12 cycles
 E2 =    -0.1549622882D+00 EUMP2 =    -0.59138450040499D+01

 The electronic state is 1-AG.
 Alpha  occ. eigenvalues --   -0.82364  -0.77430  -0.64922  -0.47694  -0.27061
 Alpha  occ. eigenvalues --   -0.24638
 Alpha virt. eigenvalues --    0.02755   0.08892   0.24139   0.24482   0.46590
 Alpha virt. eigenvalues --    0.63424

 Mulliken charges:
               1
     1  H   -0.124912
     2  H    0.150874
     3  H    0.177965
     4  H   -0.148818
     5  H   -0.053966
     6  H   -0.001144
     7  H   -0.001144
     8  H   -0.053966
     9  H   -0.148818
    10  H    0.177965
    11  H    0.150874
    12  H   -0.124912
 Sum of Mulliken charges =   0.00000

 Dipole moment (field-independent basis, Debye):
    X=              0.0000    Y=             -0.0000    Z=              0.0000  Tot=              0.0000
 Quadrupole moment (field-independent basis, Debye-Ang):
   XX=            -18.9969   YY=            -16.1171   ZZ=            -15.6485
   XY=              0.9759   XZ=             -0.0000   YZ=              0.0000

 Normal termination of Gaussian 09 at Fri Feb 10 12:38:26 2017.
