 Gaussian 09, Revision E.01,
 Gaussian 09:  ES64L-G09RevE.01 30-Nov-2015

 ----------------------------------------------------------------------
 #rhf/gen scf(symm,tight,novaracc,noincfock,fulldiag) stable(crhf) gues
 s=read geom=nocrowd test
 ----------------------------------------------------------------------

 hf stability analysis of h12 triangular lattice, y= 0.5070038553873883
 5 alpha= 24.000000000000000
 ----------------------------------------------------------------------
 Symbolic Z-matrix:
 Charge =  0 Multiplicity = 1

                         Standard orientation:
 ---------------------------------------------------------------------
 Center     Atomic      Atomic             Coordinates (Angstroms)
 Number     Number       Type             X           Y           Z
 ---------------------------------------------------------------------
      1          1           0        2.277499    1.521012   -0.000000
      2          1           0        3.416248    1.014008   -0.000000
      3          1           0        1.138749    1.014008   -0.000000
      4          1           0        2.277499    0.507004   -0.000000
      5          1           0        0.000000    0.507004    0.000000
      6          1           0        1.138749    0.000000   -0.000000
      7          1           0       -1.138749    0.000000   -0.000000
      8          1           0       -0.000000   -0.507004   -0.000000
      9          1           0       -2.277499   -0.507004   -0.000000
     10          1           0       -1.138749   -1.014008   -0.000000
     11          1           0       -3.416248   -1.014008   -0.000000
     12          1           0       -2.277499   -1.521012   -0.000000
 ---------------------------------------------------------------------

 SCF Done:  E(RHF) =  -5.76935575877     A.U. after   12 cycles
 E2 =    -0.1499970996D+00 EUMP2 =    -0.59193528583385D+01

 The electronic state is 1-AG.
 Alpha  occ. eigenvalues --   -0.83214  -0.77733  -0.65108  -0.47315  -0.27071
 Alpha  occ. eigenvalues --   -0.26688
 Alpha virt. eigenvalues --    0.01843   0.09638   0.23834   0.27146   0.46827
 Alpha virt. eigenvalues --    0.62686

 Mulliken charges:
               1
     1  H    0.164265
     2  H   -0.140337
     3  H   -0.175412
     4  H    0.185570
     5  H    0.024832
     6  H   -0.058917
     7  H   -0.058917
     8  H    0.024832
     9  H    0.185570
    10  H   -0.175412
    11  H   -0.140337
    12  H    0.164265
 Sum of Mulliken charges =   0.00000

 Dipole moment (field-independent basis, Debye):
    X=              0.0000    Y=             -0.0000    Z=             -0.0000  Tot=              0.0000
 Quadrupole moment (field-independent basis, Debye-Ang):
   XX=            -20.0124   YY=            -16.2175   ZZ=            -15.6369
   XY=              0.8278   XZ=             -0.0000   YZ=              0.0000

 Normal termination of Gaussian 09 at Fri Feb 10 12:36:52 2017.
