 Gaussian 09, Revision E.01,
 Gaussian 09:  ES64L-G09RevE.01 30-Nov-2015

 ----------------------------------------------------------------------
 #rhf/gen scf(symm,tight,novaracc,noincfock,fulldiag) stable(crhf) gues
 s=read geom=nocrowd test
 ----------------------------------------------------------------------

 hf stability analysis of h12 triangular lattice, y= 1.0879998015825072
  alpha= 64.000000000000000
 ----------------------------------------------------------------------
 Symbolic Z-matrix:
 Charge =  0 Multiplicity = 1

                         Standard orientation:
 ---------------------------------------------------------------------
 Center     Atomic      Atomic             Coordinates (Angstroms)
 Number     Number       Type             X           Y           Z
 ---------------------------------------------------------------------
      1          1           0        3.263999    1.061306   -0.000000
      2          1           0        2.176000    1.591959   -0.000000
      3          1           0        2.176000    0.530653   -0.000000
      4          1           0        1.088000    1.061306   -0.000000
      5          1           0        1.088000    0.000000   -0.000000
      6          1           0        0.000000    0.530653    0.000000
      7          1           0       -0.000000   -0.530653    0.000000
      8          1           0       -1.088000    0.000000   -0.000000
      9          1           0       -1.088000   -1.061306   -0.000000
     10          1           0       -2.176000   -0.530653   -0.000000
     11          1           0       -2.176000   -1.591959   -0.000000
     12          1           0       -3.263999   -1.061306   -0.000000
 ---------------------------------------------------------------------

 SCF Done:  E(RHF) =  -5.79008360397     A.U. after   12 cycles
 E2 =    -0.1405991601D+00 EUMP2 =    -0.59306827641055D+01

 The electronic state is 1-AG.
 Alpha  occ. eigenvalues --   -0.84787  -0.77960  -0.65227  -0.46396  -0.31958
 Alpha  occ. eigenvalues --   -0.26671
 Alpha virt. eigenvalues --    0.00733   0.09769   0.24774   0.31492   0.48909
 Alpha virt. eigenvalues --    0.61571

 Mulliken charges:
               1
     1  H   -0.129766
     2  H    0.157536
     3  H    0.192389
     4  H   -0.225647
     5  H   -0.097057
     6  H    0.102545
     7  H    0.102545
     8  H   -0.097057
     9  H   -0.225647
    10  H    0.192389
    11  H    0.157536
    12  H   -0.129766
 Sum of Mulliken charges =  -0.00000

 Dipole moment (field-independent basis, Debye):
    X=              0.0000    Y=             -0.0000    Z=              0.0000  Tot=              0.0000
 Quadrupole moment (field-independent basis, Debye-Ang):
   XX=            -19.4596   YY=            -16.9234   ZZ=            -15.6324
   XY=              1.0732   XZ=             -0.0000   YZ=              0.0000

 Normal termination of Gaussian 09 at Fri Feb 10 12:38:19 2017.
