 Gaussian 09, Revision E.01,
 Gaussian 09:  ES64L-G09RevE.01 30-Nov-2015

 ----------------------------------------------------------------------
 #rhf/gen scf(symm,tight,novaracc,noincfock,fulldiag) stable(crhf) gues
 s=read geom=nocrowd test
 ----------------------------------------------------------------------

 hf stability analysis of h12 triangular lattice, y= 1.9092530122354845
  alpha= 81.000000000000000
 ----------------------------------------------------------------------
 Symbolic Z-matrix:
 Charge =  0 Multiplicity = 1

                         Standard orientation:
 ---------------------------------------------------------------------
 Center     Atomic      Atomic             Coordinates (Angstroms)
 Number     Number       Type             X           Y           Z
 ---------------------------------------------------------------------
      1          1           0        5.727759    0.604792    0.000000
      2          1           0        3.818506    0.907188    0.000000
      3          1           0        3.818506    0.302396    0.000000
      4          1           0        1.909253    0.604792    0.000000
      5          1           0        1.909253    0.000000    0.000000
      6          1           0        0.000000    0.302396   -0.000000
      7          1           0       -0.000000   -0.302396    0.000000
      8          1           0       -1.909253    0.000000    0.000000
      9          1           0       -1.909253   -0.604792    0.000000
     10          1           0       -3.818506   -0.302396    0.000000
     11          1           0       -3.818506   -0.907188    0.000000
     12          1           0       -5.727759   -0.604792    0.000000
 ---------------------------------------------------------------------

 SCF Done:  E(RHF) =  -5.88603847406     A.U. after    6 cycles
 E2 =    -0.9551128906D+00 EUMP2 =    -0.68411513646958D+01

 The electronic state is 1-AG.
 Alpha  occ. eigenvalues --   -0.73646  -0.71613  -0.68071  -0.63796  -0.59590
 Alpha  occ. eigenvalues --   -0.19014
 Alpha virt. eigenvalues --   -0.14377   0.38005   0.43247   0.51638   0.61257
 Alpha virt. eigenvalues --    0.69441

 Mulliken charges:
               1
     1  H   -0.008453
     2  H    0.003828
     3  H    0.003480
     4  H   -0.000393
     5  H    0.001418
     6  H    0.000120
     7  H    0.000120
     8  H    0.001418
     9  H   -0.000393
    10  H    0.003480
    11  H    0.003828
    12  H   -0.008453
 Sum of Mulliken charges =  -0.00000

 Dipole moment (field-independent basis, Debye):
    X=              0.0000    Y=             -0.0000    Z=             -0.0000  Tot=              0.0000
 Quadrupole moment (field-independent basis, Debye-Ang):
   XX=            -22.0723   YY=            -14.3452   ZZ=            -15.8400
   XY=             -0.6633   XZ=              0.0000   YZ=             -0.0000

 Normal termination of Gaussian 09 at Fri Feb 10 12:38:57 2017.
