 Gaussian 09, Revision E.01,
 Gaussian 09:  ES64L-G09RevE.01 30-Nov-2015

 ----------------------------------------------------------------------
 #rhf/gen scf(symm,tight,novaracc,noincfock,fulldiag) stable=opt guess=
 read geom=nocrowd test
 ----------------------------------------------------------------------

 hf stability analysis of h10 triangular lattice, y= 0.6566033129082584
 6
 ----------------------------------------------------------------------
 Symbolic Z-matrix:
 Charge =  0 Multiplicity = 1

                         Standard orientation:
 ---------------------------------------------------------------------
 Center     Atomic      Atomic             Coordinates (Angstroms)
 Number     Number       Type             X           Y           Z
 ---------------------------------------------------------------------
      1          1           0        2.104424   -0.074657    0.000000
      2          1           0        2.104424   -1.172060    0.000000
      3          1           0        1.052212    0.237022    0.000000
      4          1           0        1.052212   -0.860381    0.000000
      5          1           0        0.000000    0.548702    0.000000
      6          1           0       -0.000000   -0.548702    0.000000
      7          1           0       -1.052212    0.860381    0.000000
      8          1           0       -1.052212   -0.237022    0.000000
      9          1           0       -2.104424    1.172060    0.000000
     10          1           0       -2.104424    0.074657    0.000000
 ---------------------------------------------------------------------

 SCF Done:  E(RHF) =  -4.84696072620     A.U. after   13 cycles
 SCF Done:  E(UHF) =  -4.94037737902     a.u. after    5 cycles

 Unable to determine electronic state:  partially filled degenerate orbitals.
 Alpha  occ. eigenvalues --   -0.86521  -0.74646  -0.56088  -0.43017  -0.37576
 Alpha virt. eigenvalues --    0.05655   0.21618   0.33318   0.54303   0.79604
  Beta  occ. eigenvalues --   -0.86521  -0.74646  -0.56088  -0.43017  -0.37576
  Beta virt. eigenvalues --    0.05655   0.21618   0.33318   0.54303   0.79604

 Mulliken charges and spin densities:
               1          2
     1  H   -0.001990  -0.546992
     2  H    0.048215   0.597313
     3  H   -0.042413   0.516943
     4  H    0.005690  -0.517066
     5  H   -0.009502  -0.344912
     6  H   -0.009502   0.344912
     7  H    0.005690   0.517066
     8  H   -0.042413  -0.516943
     9  H    0.048215  -0.597313
    10  H   -0.001990   0.546992
 Sum of Mulliken charges =  -0.00000   0.00000

 Dipole moment (field-independent basis, Debye):
    X=              0.0000    Y=              0.0000    Z=              0.0000  Tot=              0.0000
 Quadrupole moment (field-independent basis, Debye-Ang):
   XX=            -13.5527   YY=            -14.6030   ZZ=            -12.8218
   XY=             -1.6963   XZ=              0.0000   YZ=              0.0000

 Normal termination of Gaussian 09 at Wed Feb 22 12:35:56 2017.
