 Gaussian 09, Revision E.01,
 Gaussian 09:  ES64L-G09RevE.01 30-Nov-2015

 ----------------------------------------------------------------------
 #rhf/gen scf(symm,tight,novaracc,noincfock,fulldiag) stable=opt guess=
 read geom=nocrowd test
 ----------------------------------------------------------------------

 hf stability analysis of h10 triangular lattice, y= 0.2247478695127229
 1
 ----------------------------------------------------------------------
 Symbolic Z-matrix:
 Charge =  0 Multiplicity = 1

                         Standard orientation:
 ---------------------------------------------------------------------
 Center     Atomic      Atomic             Coordinates (Angstroms)
 Number     Number       Type             X           Y           Z
 ---------------------------------------------------------------------
      1          1           0        0.895571   -3.789687    0.000000
      2          1           0        0.895571   -6.368379    0.000000
      3          1           0        0.447785   -1.250170    0.000000
      4          1           0        0.447785   -3.828863    0.000000
      5          1           0        0.000000    1.289346   -0.000000
      6          1           0       -0.000000   -1.289346   -0.000000
      7          1           0       -0.447785    3.828863    0.000000
      8          1           0       -0.447785    1.250170    0.000000
      9          1           0       -0.895571    6.368379    0.000000
     10          1           0       -0.895571    3.789687    0.000000
 ---------------------------------------------------------------------

 SCF Done:  E(RHF) =  -4.24174255575     A.U. after    9 cycles
 SCF Done:  E(UHF) =  -4.53523316819     a.u. after    3 cycles

 Unable to determine electronic state:  partially filled degenerate orbitals.
 Alpha  occ. eigenvalues --   -0.74281  -0.73563  -0.72609  -0.71792  -0.49880
 Alpha virt. eigenvalues --    0.12918   0.60342   0.64165   0.69308   0.73842
  Beta  occ. eigenvalues --   -0.74281  -0.73563  -0.72609  -0.71792  -0.49880
  Beta virt. eigenvalues --    0.12918   0.60342   0.64165   0.69308   0.73842

 Mulliken charges and spin densities:
               1          2
     1  H   -0.000602   0.000983
     2  H    0.001973  -1.001973
     3  H   -0.000041   0.000003
     4  H   -0.001370   0.000989
     5  H    0.000039   0.000001
     6  H    0.000039  -0.000001
     7  H   -0.001370  -0.000989
     8  H   -0.000041  -0.000003
     9  H    0.001973   1.001973
    10  H   -0.000602  -0.000983
 Sum of Mulliken charges =   0.00000  -0.00000

 Dipole moment (field-independent basis, Debye):
    X=              0.0000    Y=              0.0000    Z=              0.0000  Tot=              0.0000
 Quadrupole moment (field-independent basis, Debye-Ang):
   XX=            -12.8179   YY=            -14.3361   ZZ=            -13.5238
   XY=              0.1858   XZ=              0.0000   YZ=             -0.0000

 Normal termination of Gaussian 09 at Wed Feb 22 12:28:45 2017.
