 Gaussian 09, Revision E.01,
 Gaussian 09:  ES64L-G09RevE.01 30-Nov-2015

 ----------------------------------------------------------------------
 #rhf/gen scf(symm,tight,novaracc,noincfock,fulldiag) stable=opt guess=
 read geom=nocrowd test
 ----------------------------------------------------------------------

 ----------------------------------------------------------------------
 hf stability analysis of h10 triangular lattice, y= 1.0153487862282633
 ----------------------------------------------------------------------
 Symbolic Z-matrix:
 Charge =  0 Multiplicity = 1

                         Standard orientation:
 ---------------------------------------------------------------------
 Center     Atomic      Atomic             Coordinates (Angstroms)
 Number     Number       Type             X           Y           Z
 ---------------------------------------------------------------------
      1          1           0        1.984484    1.797958    0.000000
      2          1           0        1.984484    0.634229    0.000000
      3          1           0        0.992242    1.189911    0.000000
      4          1           0        0.992242    0.026182    0.000000
      5          1           0       -0.000000    0.581864    0.000000
      6          1           0       -0.000000   -0.581864    0.000000
      7          1           0       -0.992242   -0.026182   -0.000000
      8          1           0       -0.992242   -1.189911   -0.000000
      9          1           0       -1.984484   -0.634229   -0.000000
     10          1           0       -1.984484   -1.797958   -0.000000
 ---------------------------------------------------------------------

 SCF Done:  E(RHF) =  -4.72638585236     A.U. after   17 cycles
 SCF Done:  E(UHF) =  -4.88917284641     a.u. after    9 cycles

 Unable to determine electronic state:  partially filled degenerate orbitals.
 Alpha  occ. eigenvalues --   -0.84930  -0.73535  -0.56244  -0.35759  -0.34201
 Alpha virt. eigenvalues --    0.04193   0.19775   0.27599   0.53562   0.58096
  Beta  occ. eigenvalues --   -0.84930  -0.73535  -0.56244  -0.35759  -0.34201
  Beta virt. eigenvalues --    0.04193   0.19775   0.27599   0.53562   0.58096

 Mulliken charges and spin densities:
               1          2
     1  H   -0.024605   0.516886
     2  H    0.058038  -0.432892
     3  H    0.076849  -0.345215
     4  H   -0.122997   0.147880
     5  H    0.012715  -0.021432
     6  H    0.012715   0.021432
     7  H   -0.122997  -0.147880
     8  H    0.076849   0.345215
     9  H    0.058038   0.432892
    10  H   -0.024605  -0.516886
 Sum of Mulliken charges =   0.00000   0.00000

 Dipole moment (field-independent basis, Debye):
    X=              0.0000    Y=              0.0000    Z=              0.0000  Tot=              0.0000
 Quadrupole moment (field-independent basis, Debye-Ang):
   XX=            -14.4014   YY=            -14.3871   ZZ=            -12.9395
   XY=              0.5071   XZ=             -0.0000   YZ=              0.0000

 Normal termination of Gaussian 09 at Wed Feb 22 12:41:21 2017.
