 Gaussian 09, Revision E.01,
 Gaussian 09:  ES64L-G09RevE.01 30-Nov-2015

 ----------------------------------------------------------------------
 #rhf/gen scf(symm,tight,novaracc,noincfock,fulldiag) stable=opt guess=
 read geom=nocrowd test
 ----------------------------------------------------------------------

 hf stability analysis of h10 triangular lattice, y= 0.2303281107335596
 6
 ----------------------------------------------------------------------
 Symbolic Z-matrix:
 Charge =  0 Multiplicity = 1

                         Standard orientation:
 ---------------------------------------------------------------------
 Center     Atomic      Atomic             Coordinates (Angstroms)
 Number     Number       Type             X           Y           Z
 ---------------------------------------------------------------------
      1          1           0        0.917447   -3.691502   -0.000000
      2          1           0        0.917447   -6.208705   -0.000000
      3          1           0        0.458724   -1.216450   -0.000000
      4          1           0        0.458724   -3.733653   -0.000000
      5          1           0        0.000000    1.258601    0.000000
      6          1           0       -0.000000   -1.258601   -0.000000
      7          1           0       -0.458724    3.733653    0.000000
      8          1           0       -0.458724    1.216450    0.000000
      9          1           0       -0.917447    6.208705    0.000000
     10          1           0       -0.917447    3.691502    0.000000
 ---------------------------------------------------------------------

 SCF Done:  E(RHF) =  -4.31503029578     A.U. after    9 cycles
 SCF Done:  E(UHF) =  -4.60821787015     a.u. after    3 cycles

 Unable to determine electronic state:  partially filled degenerate orbitals.
 Alpha  occ. eigenvalues --   -0.74080  -0.73231  -0.72085  -0.71085  -0.49845
 Alpha virt. eigenvalues --    0.12990   0.58605   0.62715   0.68277   0.73211
  Beta  occ. eigenvalues --   -0.74080  -0.73231  -0.72085  -0.71085  -0.49845
  Beta virt. eigenvalues --    0.12990   0.58605   0.62715   0.68277   0.73211

 Mulliken charges and spin densities:
               1          2
     1  H   -0.000687   0.001124
     2  H    0.002258  -1.002257
     3  H   -0.000051   0.000004
     4  H   -0.001569   0.001133
     5  H    0.000049   0.000003
     6  H    0.000049  -0.000003
     7  H   -0.001569  -0.001133
     8  H   -0.000051  -0.000004
     9  H    0.002258   1.002257
    10  H   -0.000687  -0.001124
 Sum of Mulliken charges =   0.00000   0.00000

 Dipole moment (field-independent basis, Debye):
    X=              0.0000    Y=             -0.0000    Z=              0.0000  Tot=              0.0000
 Quadrupole moment (field-independent basis, Debye-Ang):
   XX=            -12.7731   YY=            -14.4303   ZZ=            -13.5074
   XY=              0.2158   XZ=              0.0000   YZ=             -0.0000

 Normal termination of Gaussian 09 at Wed Feb 22 12:28:48 2017.
