 Gaussian 09, Revision E.01,
 Gaussian 09:  ES64L-G09RevE.01 30-Nov-2015

 ----------------------------------------------------------------------
 #rhf/gen scf(symm,tight,novaracc,noincfock,fulldiag) stable=opt guess=
 read geom=nocrowd test
 ----------------------------------------------------------------------

 ----------------------------------------------------------------------
 hf stability analysis of h10 triangular lattice, y= 1.7438440595774944
 ----------------------------------------------------------------------
 Symbolic Z-matrix:
 Charge =  0 Multiplicity = 1

                         Standard orientation:
 ---------------------------------------------------------------------
 Center     Atomic      Atomic             Coordinates (Angstroms)
 Number     Number       Type             X           Y           Z
 ---------------------------------------------------------------------
      1          1           0        1.301075    4.190469   -0.000000
      2          1           0        1.301075    2.415475   -0.000000
      3          1           0        0.650538    2.538983   -0.000000
      4          1           0        0.650538    0.763989   -0.000000
      5          1           0       -0.000000    0.887497    0.000000
      6          1           0       -0.000000   -0.887497    0.000000
      7          1           0       -0.650538   -0.763989   -0.000000
      8          1           0       -0.650538   -2.538983   -0.000000
      9          1           0       -1.301075   -2.415475   -0.000000
     10          1           0       -1.301075   -4.190469   -0.000000
 ---------------------------------------------------------------------

 SCF Done:  E(RHF) =  -4.91442254407     A.U. after    8 cycles
 SCF Done:  E(UHF) =  -5.19543582834     a.u. after    4 cycles

 Unable to determine electronic state:  partially filled degenerate orbitals.
 Alpha  occ. eigenvalues --   -0.73719  -0.69834  -0.63448  -0.55816  -0.45982
 Alpha virt. eigenvalues --    0.15978   0.32367   0.41041   0.54095   0.66971
  Beta  occ. eigenvalues --   -0.73719  -0.69834  -0.63448  -0.55816  -0.45982
  Beta virt. eigenvalues --    0.15978   0.32367   0.41041   0.54095   0.66971

 Mulliken charges and spin densities:
               1          2
     1  H    0.000871  -1.000735
     2  H   -0.003120  -0.000940
     3  H    0.001160   0.002809
     4  H   -0.000190   0.001261
     5  H    0.001278  -0.002263
     6  H    0.001278   0.002263
     7  H   -0.000190  -0.001261
     8  H    0.001160  -0.002809
     9  H   -0.003120   0.000940
    10  H    0.000871   1.000735
 Sum of Mulliken charges =   0.00000  -0.00000

 Dipole moment (field-independent basis, Debye):
    X=              0.0000    Y=              0.0000    Z=              0.0000  Tot=              0.0000
 Quadrupole moment (field-independent basis, Debye-Ang):
   XX=            -12.1411   YY=            -17.2914   ZZ=            -13.0307
   XY=             -1.7289   XZ=              0.0000   YZ=             -0.0000

 Normal termination of Gaussian 09 at Wed Feb 22 12:45:23 2017.
