 Gaussian 09, Revision E.01,
 Gaussian 09:  ES64L-G09RevE.01 30-Nov-2015

 ----------------------------------------------------------------------
 #rhf/gen scf(symm,tight,novaracc,noincfock,fulldiag) stable=opt guess=
 read geom=nocrowd test
 ----------------------------------------------------------------------

 hf stability analysis of h10 triangular lattice, y= 0.3066389812720254
 9
 ----------------------------------------------------------------------
 Symbolic Z-matrix:
 Charge =  0 Multiplicity = 1

                         Standard orientation:
 ---------------------------------------------------------------------
 Center     Atomic      Atomic             Coordinates (Angstroms)
 Number     Number       Type             X           Y           Z
 ---------------------------------------------------------------------
      1          1           0        1.210606   -2.664300   -0.000000
      2          1           0        1.210606   -4.571941   -0.000000
      3          1           0        0.605303   -0.855240   -0.000000
      4          1           0        0.605303   -2.762880   -0.000000
      5          1           0        0.000000    0.953820    0.000000
      6          1           0       -0.000000   -0.953820    0.000000
      7          1           0       -0.605303    2.762880    0.000000
      8          1           0       -0.605303    0.855240    0.000000
      9          1           0       -1.210606    4.571941    0.000000
     10          1           0       -1.210606    2.664300    0.000000
 ---------------------------------------------------------------------

 SCF Done:  E(RHF) =  -4.86688255914     A.U. after    9 cycles
 SCF Done:  E(UHF) =  -5.15343887031     a.u. after    4 cycles

 Unable to determine electronic state:  partially filled degenerate orbitals.
 Alpha  occ. eigenvalues --   -0.73321  -0.70218  -0.65263  -0.59697  -0.47802
 Alpha virt. eigenvalues --    0.14907   0.37895   0.45621   0.57001   0.67999
  Beta  occ. eigenvalues --   -0.73321  -0.70218  -0.65263  -0.59697  -0.47802
  Beta virt. eigenvalues --    0.14907   0.37895   0.45621   0.57001   0.67999

 Mulliken charges and spin densities:
               1          2
     1  H   -0.002339   0.001613
     2  H    0.004041  -1.003995
     3  H   -0.000295   0.000377
     4  H   -0.002062   0.002766
     5  H    0.000655   0.000731
     6  H    0.000655  -0.000731
     7  H   -0.002062  -0.002766
     8  H   -0.000295  -0.000377
     9  H    0.004041   1.003995
    10  H   -0.002339  -0.001613
 Sum of Mulliken charges =   0.00000  -0.00000

 Dipole moment (field-independent basis, Debye):
    X=              0.0000    Y=             -0.0000    Z=              0.0000  Tot=              0.0000
 Quadrupole moment (field-independent basis, Debye-Ang):
   XX=            -12.1949   YY=            -16.3772   ZZ=            -13.1627
   XY=              1.1352   XZ=             -0.0000   YZ=             -0.0000

 Normal termination of Gaussian 09 at Wed Feb 22 12:29:38 2017.
