 Gaussian 09, Revision E.01,
 Gaussian 09:  ES64L-G09RevE.01 30-Nov-2015

 ----------------------------------------------------------------------
 #rhf/gen scf(symm,tight,novaracc,noincfock,fulldiag) stable=opt guess=
 read geom=nocrowd test
 ----------------------------------------------------------------------

 hf stability analysis of h10 triangular lattice, y= 0.8674200594573238
 1
 ----------------------------------------------------------------------
 Symbolic Z-matrix:
 Charge =  0 Multiplicity = 1

                         Standard orientation:
 ---------------------------------------------------------------------
 Center     Atomic      Atomic             Coordinates (Angstroms)
 Number     Number       Type             X           Y           Z
 ---------------------------------------------------------------------
      1          1           0        2.112207    1.112644   -0.000000
      2          1           0        2.112207    0.019285   -0.000000
      3          1           0        1.056104    0.829662   -0.000000
      4          1           0        1.056104   -0.263697   -0.000000
      5          1           0        0.000000    0.546680    0.000000
      6          1           0       -0.000000   -0.546680    0.000000
      7          1           0       -1.056104    0.263697   -0.000000
      8          1           0       -1.056104   -0.829662   -0.000000
      9          1           0       -2.112207   -0.019285   -0.000000
     10          1           0       -2.112207   -1.112644   -0.000000
 ---------------------------------------------------------------------

 SCF Done:  E(RHF) =  -4.85414534171     A.U. after   15 cycles
 SCF Done:  E(UHF) =  -4.94416616062     a.u. after    5 cycles

 Unable to determine electronic state:  partially filled degenerate orbitals.
 Alpha  occ. eigenvalues --   -0.86666  -0.74705  -0.56047  -0.43492  -0.37821
 Alpha virt. eigenvalues --    0.05869   0.21401   0.34001   0.54094   0.81539
  Beta  occ. eigenvalues --   -0.86666  -0.74705  -0.56047  -0.43492  -0.37821
  Beta virt. eigenvalues --    0.05869   0.21401   0.34001   0.54094   0.81539

 Mulliken charges and spin densities:
               1          2
     1  H    0.048867   0.599749
     2  H   -0.000799  -0.554741
     3  H    0.000735  -0.524892
     4  H   -0.040788   0.525910
     5  H   -0.008015   0.357588
     6  H   -0.008015  -0.357588
     7  H   -0.040788  -0.525910
     8  H    0.000735   0.524892
     9  H   -0.000799   0.554741
    10  H    0.048867  -0.599749
 Sum of Mulliken charges =  -0.00000   0.00000

 Dipole moment (field-independent basis, Debye):
    X=             -0.0000    Y=             -0.0000    Z=             -0.0000  Tot=              0.0000
 Quadrupole moment (field-independent basis, Debye-Ang):
   XX=            -13.4571   YY=            -14.7488   ZZ=            -12.8156
   XY=              1.6118   XZ=              0.0000   YZ=             -0.0000

 Normal termination of Gaussian 09 at Wed Feb 22 12:39:29 2017.
