 Gaussian 09, Revision E.01,
 Gaussian 09:  ES64L-G09RevE.01 30-Nov-2015

 ----------------------------------------------------------------------
 #rhf/gen scf(symm,tight,novaracc,noincfock,fulldiag) stable=opt guess=
 read geom=nocrowd test
 ----------------------------------------------------------------------

 hf stability analysis of h10 triangular lattice, y= 0.4552910430659851
 7
 ----------------------------------------------------------------------
 Symbolic Z-matrix:
 Charge =  0 Multiplicity = 1

                         Standard orientation:
 ---------------------------------------------------------------------
 Center     Atomic      Atomic             Coordinates (Angstroms)
 Number     Number       Type             X           Y           Z
 ---------------------------------------------------------------------
      1          1           0        1.714036   -1.405618   -0.000000
      2          1           0        1.714036   -2.752965   -0.000000
      3          1           0        0.857018   -0.365973   -0.000000
      4          1           0        0.857018   -1.713319   -0.000000
      5          1           0        0.000000    0.673673    0.000000
      6          1           0       -0.000000   -0.673673    0.000000
      7          1           0       -0.857018    1.713319   -0.000000
      8          1           0       -0.857018    0.365973    0.000000
      9          1           0       -1.714036    2.752965   -0.000000
     10          1           0       -1.714036    1.405618   -0.000000
 ---------------------------------------------------------------------

 SCF Done:  E(RHF) =  -4.70490491879     A.U. after   14 cycles
 SCF Done:  E(UHF) =  -4.87913579432     a.u. after    8 cycles
 SCF Done:  E(UHF) =  -4.88382037857     a.u. after   10 cycles

 Unable to determine electronic state:  partially filled degenerate orbitals.
 Alpha  occ. eigenvalues --   -0.80530  -0.71418  -0.58927  -0.42061  -0.30849
 Alpha virt. eigenvalues --    0.11557   0.22063   0.27961   0.38604   0.60513
  Beta  occ. eigenvalues --   -0.80298  -0.72502  -0.58764  -0.43788  -0.27832
  Beta virt. eigenvalues --    0.10582   0.20067   0.24191   0.43515   0.59713

 Mulliken charges and spin densities:
               1          2
     1  H    0.012412   0.210832
     2  H   -0.074753  -0.916646
     3  H    0.026132  -0.528455
     4  H    0.041407  -0.240250
     5  H   -0.029235   0.573248
     6  H    0.017514   0.504796
     7  H    0.100670  -0.326338
     8  H    0.011576  -0.552593
     9  H   -0.080074   0.830094
    10  H   -0.025648   0.445313
 Sum of Mulliken charges =  -0.00000  -0.00000

 Dipole moment (field-independent basis, Debye):
    X=              0.1731    Y=             -0.0165    Z=              0.0000  Tot=              0.1739
 Quadrupole moment (field-independent basis, Debye-Ang):
   XX=            -15.1659   YY=            -20.5561   ZZ=            -12.6147
   XY=              5.3776   XZ=              0.0000   YZ=             -0.0000

 Normal termination of Gaussian 09 at Wed Feb 22 12:32:02 2017.
