 Gaussian 09, Revision E.01,
 Gaussian 09:  ES64L-G09RevE.01 30-Nov-2015

 ----------------------------------------------------------------------
 #rhf/gen scf(symm,tight,novaracc,noincfock,fulldiag) stable=opt guess=
 read geom=nocrowd test
 ----------------------------------------------------------------------

 hf stability analysis of h10 triangular lattice, y= 0.2662511995880488
 8
 ----------------------------------------------------------------------
 Symbolic Z-matrix:
 Charge =  0 Multiplicity = 1

                         Standard orientation:
 ---------------------------------------------------------------------
 Center     Atomic      Atomic             Coordinates (Angstroms)
 Number     Number       Type             X           Y           Z
 ---------------------------------------------------------------------
      1          1           0        1.057066   -3.147298    0.000000
      2          1           0        1.057066   -5.332025    0.000000
      3          1           0        0.528533   -1.027468    0.000000
      4          1           0        0.528533   -3.212194    0.000000
      5          1           0        0.000000    1.092363    0.000000
      6          1           0       -0.000000   -1.092363   -0.000000
      7          1           0       -0.528533    3.212194    0.000000
      8          1           0       -0.528533    1.027468    0.000000
      9          1           0       -1.057066    5.332025    0.000000
     10          1           0       -1.057066    3.147298    0.000000
 ---------------------------------------------------------------------

 SCF Done:  E(RHF) =  -4.66588668664     A.U. after    9 cycles
 SCF Done:  E(UHF) =  -4.95693953208     a.u. after    4 cycles

 Unable to determine electronic state:  partially filled degenerate orbitals.
 Alpha  occ. eigenvalues --   -0.73295  -0.71456  -0.68741  -0.66062  -0.49351
 Alpha virt. eigenvalues --    0.13654   0.48152   0.54070   0.62416   0.70141
  Beta  occ. eigenvalues --   -0.73295  -0.71456  -0.68741  -0.66062  -0.49351
  Beta virt. eigenvalues --    0.13654   0.48152   0.54070   0.62416   0.70141

 Mulliken charges and spin densities:
               1          2
     1  H   -0.001355   0.001998
     2  H    0.004088  -1.004082
     3  H   -0.000156   0.000040
     4  H   -0.002761   0.002117
     5  H    0.000184   0.000072
     6  H    0.000184  -0.000072
     7  H   -0.002761  -0.002117
     8  H   -0.000156  -0.000040
     9  H    0.004088   1.004082
    10  H   -0.001355  -0.001998
 Sum of Mulliken charges =   0.00000  -0.00000

 Dipole moment (field-independent basis, Debye):
    X=             -0.0000    Y=              0.0000    Z=              0.0000  Tot=              0.0000
 Quadrupole moment (field-independent basis, Debye-Ang):
   XX=            -12.4709   YY=            -15.1880   ZZ=            -13.3673
   XY=              0.5104   XZ=              0.0000   YZ=              0.0000

 Normal termination of Gaussian 09 at Wed Feb 22 12:29:09 2017.
