 Gaussian 09, Revision E.01,
 Gaussian 09:  ES64L-G09RevE.01 30-Nov-2015

 ----------------------------------------------------------------------
 #rhf/gen scf(symm,tight,novaracc,noincfock,fulldiag) stable=opt guess=
 read geom=nocrowd test
 ----------------------------------------------------------------------

 hf stability analysis of h10 triangular lattice, y= 0.8007574317254395
 6
 ----------------------------------------------------------------------
 Symbolic Z-matrix:
 Charge =  0 Multiplicity = 1

                         Standard orientation:
 ---------------------------------------------------------------------
 Center     Atomic      Atomic             Coordinates (Angstroms)
 Number     Number       Type             X           Y           Z
 ---------------------------------------------------------------------
      1          1           0        2.143245    0.764027   -0.000000
      2          1           0        2.143245   -0.313499   -0.000000
      3          1           0        1.071623    0.651395   -0.000000
      4          1           0        1.071623   -0.426131   -0.000000
      5          1           0        0.000000    0.538763    0.000000
      6          1           0       -0.000000   -0.538763    0.000000
      7          1           0       -1.071623    0.426131    0.000000
      8          1           0       -1.071623   -0.651395    0.000000
      9          1           0       -2.143245    0.313499    0.000000
     10          1           0       -2.143245   -0.764027    0.000000
 ---------------------------------------------------------------------

 SCF Done:  E(RHF) =  -4.88165414716     A.U. after   13 cycles
 SCF Done:  E(UHF) =  -4.95928874113     a.u. after    5 cycles

 Unable to determine electronic state:  partially filled degenerate orbitals.
 Alpha  occ. eigenvalues --   -0.87256  -0.74947  -0.55822  -0.45329  -0.38855
 Alpha virt. eigenvalues --    0.06925   0.20146   0.37125   0.52981   0.89955
  Beta  occ. eigenvalues --   -0.87256  -0.74947  -0.55822  -0.45329  -0.38855
  Beta virt. eigenvalues --    0.06925   0.20146   0.37125   0.52981   0.89955

 Mulliken charges and spin densities:
               1          2
     1  H    0.040740   0.602428
     2  H    0.014903  -0.585459
     3  H   -0.019951  -0.551929
     4  H   -0.033285   0.553640
     5  H   -0.002408   0.401195
     6  H   -0.002408  -0.401195
     7  H   -0.033285  -0.553640
     8  H   -0.019951   0.551929
     9  H    0.014903   0.585459
    10  H    0.040740  -0.602428
 Sum of Mulliken charges =  -0.00000   0.00000

 Dipole moment (field-independent basis, Debye):
    X=             -0.0000    Y=             -0.0000    Z=              0.0000  Tot=              0.0000
 Quadrupole moment (field-independent basis, Debye-Ang):
   XX=            -13.0350   YY=            -15.4314   ZZ=            -12.7937
   XY=              0.7516   XZ=              0.0000   YZ=             -0.0000

 Normal termination of Gaussian 09 at Wed Feb 22 12:38:28 2017.
