 Gaussian 09, Revision E.01,
 Gaussian 09:  ES64L-G09RevE.01 30-Nov-2015

 ----------------------------------------------------------------------
 #rhf/gen scf(symm,tight,novaracc,noincfock,fulldiag) stable=opt guess=
 read geom=nocrowd test
 ----------------------------------------------------------------------

 hf stability analysis of h10 triangular lattice, y= 0.3388836262365067
 0
 ----------------------------------------------------------------------
 Symbolic Z-matrix:
 Charge =  0 Multiplicity = 1

                         Standard orientation:
 ---------------------------------------------------------------------
 Center     Atomic      Atomic             Coordinates (Angstroms)
 Number     Number       Type             X           Y           Z
 ---------------------------------------------------------------------
      1          1           0        1.329488   -2.341139   -0.000000
      2          1           0        1.329488   -4.078199   -0.000000
      3          1           0        0.664744   -0.736304   -0.000000
      4          1           0        0.664744   -2.473364   -0.000000
      5          1           0        0.000000    0.868530    0.000000
      6          1           0       -0.000000   -0.868530    0.000000
      7          1           0       -0.664744    2.473364    0.000000
      8          1           0       -0.664744    0.736304    0.000000
      9          1           0       -1.329488    4.078199    0.000000
     10          1           0       -1.329488    2.341139    0.000000
 ---------------------------------------------------------------------

 SCF Done:  E(RHF) =  -4.92014541315     A.U. after   10 cycles
 SCF Done:  E(UHF) =  -5.19864545205     a.u. after    4 cycles

 Unable to determine electronic state:  partially filled degenerate orbitals.
 Alpha  occ. eigenvalues --   -0.73900  -0.69766  -0.62926  -0.54632  -0.45212
 Alpha virt. eigenvalues --    0.16373   0.30693   0.39649   0.53205   0.66647
  Beta  occ. eigenvalues --   -0.73900  -0.69766  -0.62926  -0.54632  -0.45212
  Beta virt. eigenvalues --    0.16373   0.30693   0.39649   0.53205   0.66647

 Mulliken charges and spin densities:
               1          2
     1  H   -0.003425  -0.002481
     2  H   -0.000966  -0.998845
     3  H   -0.000064   0.001817
     4  H    0.002900   0.002871
     5  H    0.001555   0.003164
     6  H    0.001555  -0.003164
     7  H    0.002900  -0.002871
     8  H   -0.000064  -0.001817
     9  H   -0.000966   0.998845
    10  H   -0.003425   0.002481
 Sum of Mulliken charges =   0.00000  -0.00000

 Dipole moment (field-independent basis, Debye):
    X=              0.0000    Y=             -0.0000    Z=             -0.0000  Tot=              0.0000
 Quadrupole moment (field-independent basis, Debye-Ang):
   XX=            -12.1544   YY=            -17.6166   ZZ=            -12.9889
   XY=              1.9615   XZ=             -0.0000   YZ=             -0.0000

 Normal termination of Gaussian 09 at Wed Feb 22 12:30:04 2017.
