 Gaussian 09, Revision E.01,
 Gaussian 09:  ES64L-G09RevE.01 30-Nov-2015

 ----------------------------------------------------------------------
 #rhf/gen scf(symm,tight,novaracc,noincfock,fulldiag) stable=opt guess=
 read geom=nocrowd test
 ----------------------------------------------------------------------

 hf stability analysis of h10 triangular lattice, y= 0.6006400760937612
 4
 ----------------------------------------------------------------------
 Symbolic Z-matrix:
 Charge =  0 Multiplicity = 1

                         Standard orientation:
 ---------------------------------------------------------------------
 Center     Atomic      Atomic             Coordinates (Angstroms)
 Number     Number       Type             X           Y           Z
 ---------------------------------------------------------------------
      1          1           0        2.037487   -0.427021   -0.000000
      2          1           0        2.037487   -1.560477   -0.000000
      3          1           0        1.018743    0.069854   -0.000000
      4          1           0        1.018743   -1.063602   -0.000000
      5          1           0        0.000000    0.566728    0.000000
      6          1           0       -0.000000   -0.566728    0.000000
      7          1           0       -1.018743    1.063602    0.000000
      8          1           0       -1.018743   -0.069854    0.000000
      9          1           0       -2.037487    1.560477    0.000000
     10          1           0       -2.037487    0.427021    0.000000
 ---------------------------------------------------------------------

 SCF Done:  E(RHF) =  -4.78117224326     A.U. after   14 cycles
 SCF Done:  E(UHF) =  -4.90914018414     a.u. after    7 cycles

 Unable to determine electronic state:  partially filled degenerate orbitals.
 Alpha  occ. eigenvalues --   -0.85349  -0.74173  -0.56249  -0.38706  -0.35706
 Alpha virt. eigenvalues --    0.04383   0.21742   0.29049   0.55334   0.65318
  Beta  occ. eigenvalues --   -0.85349  -0.74173  -0.56249  -0.38706  -0.35706
  Beta virt. eigenvalues --    0.04383   0.21742   0.29049   0.55334   0.65318

 Mulliken charges and spin densities:
               1          2
     1  H    0.010992  -0.471290
     2  H    0.022284   0.562239
     3  H   -0.064145   0.394559
     4  H    0.050294  -0.431389
     5  H   -0.019424  -0.200437
     6  H   -0.019424   0.200437
     7  H    0.050294   0.431389
     8  H   -0.064145  -0.394559
     9  H    0.022284  -0.562239
    10  H    0.010992   0.471290
 Sum of Mulliken charges =   0.00000   0.00000

 Dipole moment (field-independent basis, Debye):
    X=             -0.0000    Y=              0.0000    Z=              0.0000  Tot=              0.0000
 Quadrupole moment (field-independent basis, Debye-Ang):
   XX=            -14.1432   YY=            -13.8764   ZZ=            -12.8870
   XY=             -1.5885   XZ=              0.0000   YZ=              0.0000

 Normal termination of Gaussian 09 at Wed Feb 22 12:34:52 2017.
