 Gaussian 09, Revision E.01,
 Gaussian 09:  ES64L-G09RevE.01 30-Nov-2015

 ----------------------------------------------------------------------
 #rhf/gen scf(symm,tight,novaracc,noincfock,fulldiag) stable=opt guess=
 read geom=nocrowd test
 ----------------------------------------------------------------------

 hf stability analysis of h10 triangular lattice, y= 0.6716215332591580
 8
 ----------------------------------------------------------------------
 Symbolic Z-matrix:
 Charge =  0 Multiplicity = 1

                         Standard orientation:
 ---------------------------------------------------------------------
 Center     Atomic      Atomic             Coordinates (Angstroms)
 Number     Number       Type             X           Y           Z
 ---------------------------------------------------------------------
      1          1           0        2.116980    0.017625    0.000000
      2          1           0        2.116980   -1.073269    0.000000
      3          1           0        1.058490    0.281536    0.000000
      4          1           0        1.058490   -0.809358    0.000000
      5          1           0       -0.000000    0.545447   -0.000000
      6          1           0       -0.000000   -0.545447   -0.000000
      7          1           0       -1.058490    0.809358    0.000000
      8          1           0       -1.058490   -0.281536    0.000000
      9          1           0       -2.116980    1.073269    0.000000
     10          1           0       -2.116980   -0.017625    0.000000
 ---------------------------------------------------------------------

 SCF Done:  E(RHF) =  -4.85849516413     A.U. after   13 cycles
 SCF Done:  E(UHF) =  -4.94649332442     a.u. after    5 cycles

 Unable to determine electronic state:  partially filled degenerate orbitals.
 Alpha  occ. eigenvalues --   -0.86756  -0.74741  -0.56018  -0.43781  -0.37974
 Alpha virt. eigenvalues --    0.06009   0.21249   0.34438   0.53954   0.82758
  Beta  occ. eigenvalues --   -0.86756  -0.74741  -0.56018  -0.43781  -0.37974
  Beta virt. eigenvalues --    0.06009   0.21249   0.34438   0.53954   0.82758

 Mulliken charges and spin densities:
               1          2
     1  H    0.000303  -0.559388
     2  H    0.048909   0.600989
     3  H   -0.039810   0.530994
     4  H   -0.002289  -0.529464
     5  H   -0.007114  -0.365000
     6  H   -0.007114   0.365000
     7  H   -0.002289   0.529464
     8  H   -0.039810  -0.530994
     9  H    0.048909  -0.600989
    10  H    0.000303   0.559388
 Sum of Mulliken charges =  -0.00000  -0.00000

 Dipole moment (field-independent basis, Debye):
    X=              0.0000    Y=             -0.0000    Z=              0.0000  Tot=              0.0000
 Quadrupole moment (field-independent basis, Debye-Ang):
   XX=            -13.3963   YY=            -14.8436   ZZ=            -12.8119
   XY=             -1.5438   XZ=             -0.0000   YZ=             -0.0000

 Normal termination of Gaussian 09 at Wed Feb 22 12:36:13 2017.
