 Gaussian 09, Revision E.01,
 Gaussian 09:  ES64L-G09RevE.01 30-Nov-2015

 ----------------------------------------------------------------------
 #rhf/gen scf(symm,tight,novaracc,noincfock,fulldiag) stable=opt guess=
 read geom=nocrowd test
 ----------------------------------------------------------------------

 ----------------------------------------------------------------------
 hf stability analysis of h10 triangular lattice, y= 1.0365814879045478
 ----------------------------------------------------------------------
 Symbolic Z-matrix:
 Charge =  0 Multiplicity = 1

                         Standard orientation:
 ---------------------------------------------------------------------
 Center     Atomic      Atomic             Coordinates (Angstroms)
 Number     Number       Type             X           Y           Z
 ---------------------------------------------------------------------
      1          1           0        1.962538    1.887346    0.000000
      2          1           0        1.962538    0.710604    0.000000
      3          1           0        0.981269    1.237859    0.000000
      4          1           0        0.981269    0.061116    0.000000
      5          1           0       -0.000000    0.588371    0.000000
      6          1           0       -0.000000   -0.588371    0.000000
      7          1           0       -0.981269   -0.061116    0.000000
      8          1           0       -0.981269   -1.237859    0.000000
      9          1           0       -1.962538   -0.710604    0.000000
     10          1           0       -1.962538   -1.887346    0.000000
 ---------------------------------------------------------------------

 SCF Done:  E(RHF) =  -4.70436387070     A.U. after   16 cycles
 SCF Done:  E(UHF) =  -4.88437506672     a.u. after   10 cycles

 Unable to determine electronic state:  partially filled degenerate orbitals.
 Alpha  occ. eigenvalues --   -0.85060  -0.73000  -0.56191  -0.35374  -0.33399
 Alpha virt. eigenvalues --    0.04805   0.19058   0.26911   0.51012   0.57422
  Beta  occ. eigenvalues --   -0.85060  -0.73000  -0.56191  -0.35374  -0.33399
  Beta virt. eigenvalues --    0.04805   0.19058   0.26911   0.51012   0.57422

 Mulliken charges and spin densities:
               1          2
     1  H   -0.051512  -0.463421
     2  H    0.089807   0.427538
     3  H    0.075611   0.290900
     4  H   -0.149248   0.020859
     5  H    0.035342   0.146541
     6  H    0.035342  -0.146541
     7  H   -0.149248  -0.020859
     8  H    0.075611  -0.290900
     9  H    0.089807  -0.427538
    10  H   -0.051512   0.463421
 Sum of Mulliken charges =   0.00000  -0.00000

 Dipole moment (field-independent basis, Debye):
    X=              0.0000    Y=              0.0000    Z=              0.0000  Tot=              0.0000
 Quadrupole moment (field-independent basis, Debye-Ang):
   XX=            -14.4164   YY=            -15.1071   ZZ=            -12.9485
   XY=             -0.3342   XZ=              0.0000   YZ=              0.0000

 Normal termination of Gaussian 09 at Wed Feb 22 12:41:35 2017.
