 Gaussian 09, Revision E.01,
 Gaussian 09:  ES64L-G09RevE.01 30-Nov-2015

 ----------------------------------------------------------------------
 #rhf/gen scf(symm,tight,novaracc,noincfock,fulldiag) stable=opt guess=
 read geom=nocrowd test
 ----------------------------------------------------------------------

 hf stability analysis of h10 triangular lattice, y= 0.9165423628436679
 7
 ----------------------------------------------------------------------
 Symbolic Z-matrix:
 Charge =  0 Multiplicity = 1

                         Standard orientation:
 ---------------------------------------------------------------------
 Center     Atomic      Atomic             Coordinates (Angstroms)
 Number     Number       Type             X           Y           Z
 ---------------------------------------------------------------------
      1          1           0        2.076541    1.353179    0.000000
      2          1           0        2.076541    0.241040    0.000000
      3          1           0        1.038271    0.954624    0.000000
      4          1           0        1.038271   -0.157514    0.000000
      5          1           0       -0.000000    0.556069   -0.000000
      6          1           0       -0.000000   -0.556069    0.000000
      7          1           0       -1.038271    0.157514    0.000000
      8          1           0       -1.038271   -0.954624    0.000000
      9          1           0       -2.076541   -0.241040    0.000000
     10          1           0       -2.076541   -1.353179    0.000000
 ---------------------------------------------------------------------

 SCF Done:  E(RHF) =  -4.82035812787     A.U. after   15 cycles
 SCF Done:  E(UHF) =  -4.92697091730     a.u. after    7 cycles

 Unable to determine electronic state:  partially filled degenerate orbitals.
 Alpha  occ. eigenvalues --   -0.86012  -0.74444  -0.56192  -0.41264  -0.36744
 Alpha virt. eigenvalues --    0.05013   0.22069   0.31177   0.54893   0.73164
  Beta  occ. eigenvalues --   -0.86012  -0.74444  -0.56192  -0.41264  -0.36744
  Beta virt. eigenvalues --    0.05013   0.22069   0.31177   0.54893   0.73164

 Mulliken charges and spin densities:
               1          2
     1  H    0.041226   0.585167
     2  H   -0.001207  -0.517079
     3  H    0.023926  -0.485178
     4  H   -0.049167   0.477131
     5  H   -0.014778   0.293106
     6  H   -0.014778  -0.293106
     7  H   -0.049167  -0.477131
     8  H    0.023926   0.485178
     9  H   -0.001207   0.517079
    10  H    0.041226  -0.585167
 Sum of Mulliken charges =   0.00000   0.00000

 Dipole moment (field-independent basis, Debye):
    X=              0.0000    Y=              0.0000    Z=              0.0000  Tot=              0.0000
 Quadrupole moment (field-independent basis, Debye-Ang):
   XX=            -13.8527   YY=            -14.1780   ZZ=            -12.8466
   XY=              1.8002   XZ=             -0.0000   YZ=              0.0000

 Normal termination of Gaussian 09 at Wed Feb 22 12:40:09 2017.
