 Gaussian 09, Revision E.01,
 Gaussian 09:  ES64L-G09RevE.01 30-Nov-2015

 ----------------------------------------------------------------------
 #rhf/gen scf(symm,tight,novaracc,noincfock,fulldiag) stable=opt guess=
 read geom=nocrowd test
 ----------------------------------------------------------------------

 hf stability analysis of h10 triangular lattice, y= 0.5889881594497650
 1
 ----------------------------------------------------------------------
 Symbolic Z-matrix:
 Charge =  0 Multiplicity = 1

                         Standard orientation:
 ---------------------------------------------------------------------
 Center     Atomic      Atomic             Coordinates (Angstroms)
 Number     Number       Type             X           Y           Z
 ---------------------------------------------------------------------
      1          1           0        2.019446   -0.501967   -0.000000
      2          1           0        2.019446   -1.645549   -0.000000
      3          1           0        1.009723    0.034912   -0.000000
      4          1           0        1.009723   -1.108670   -0.000000
      5          1           0        0.000000    0.571791   -0.000000
      6          1           0       -0.000000   -0.571791   -0.000000
      7          1           0       -1.009723    1.108670   -0.000000
      8          1           0       -1.009723   -0.034912   -0.000000
      9          1           0       -2.019446    1.645549   -0.000000
     10          1           0       -2.019446    0.501967   -0.000000
 ---------------------------------------------------------------------

 SCF Done:  E(RHF) =  -4.76255690727     A.U. after   14 cycles
 SCF Done:  E(UHF) =  -4.90155256274     a.u. after    7 cycles

 Unable to determine electronic state:  partially filled degenerate orbitals.
 Alpha  occ. eigenvalues --   -0.85089  -0.74034  -0.56256  -0.37516  -0.35279
 Alpha virt. eigenvalues --    0.04195   0.21210   0.28427   0.55299   0.62200
  Beta  occ. eigenvalues --   -0.85089  -0.74034  -0.56256  -0.37516  -0.35279
  Beta virt. eigenvalues --    0.04195   0.21210   0.28427   0.55299   0.62200

 Mulliken charges and spin densities:
               1          2
     1  H    0.021095  -0.451795
     2  H    0.010452   0.550686
     3  H   -0.075859   0.339301
     4  H    0.061838  -0.404393
     5  H   -0.017525  -0.145682
     6  H   -0.017525   0.145682
     7  H    0.061838   0.404393
     8  H   -0.075859  -0.339301
     9  H    0.010452  -0.550686
    10  H    0.021095   0.451795
 Sum of Mulliken charges =   0.00000   0.00000

 Dipole moment (field-independent basis, Debye):
    X=             -0.0000    Y=             -0.0000    Z=             -0.0000  Tot=              0.0000
 Quadrupole moment (field-independent basis, Debye-Ang):
   XX=            -14.2297   YY=            -13.8758   ZZ=            -12.9069
   XY=             -1.3773   XZ=             -0.0000   YZ=             -0.0000

 Normal termination of Gaussian 09 at Wed Feb 22 12:34:38 2017.
