 Gaussian 09, Revision E.01,
 Gaussian 09:  ES64L-G09RevE.01 30-Nov-2015

 ----------------------------------------------------------------------
 #rhf/gen scf(symm,tight,novaracc,noincfock,fulldiag) stable=opt guess=
 read geom=nocrowd test
 ----------------------------------------------------------------------

 hf stability analysis of h10 triangular lattice, y= 0.3023959355609886
 5
 ----------------------------------------------------------------------
 Symbolic Z-matrix:
 Charge =  0 Multiplicity = 1

                         Standard orientation:
 ---------------------------------------------------------------------
 Center     Atomic      Atomic             Coordinates (Angstroms)
 Number     Number       Type             X           Y           Z
 ---------------------------------------------------------------------
      1          1           0        1.194692   -2.710357    0.000000
      2          1           0        1.194692   -4.643409    0.000000
      3          1           0        0.597346   -0.871916    0.000000
      4          1           0        0.597346   -2.804967    0.000000
      5          1           0        0.000000    0.966526   -0.000000
      6          1           0       -0.000000   -0.966526   -0.000000
      7          1           0       -0.597346    2.804967    0.000000
      8          1           0       -0.597346    0.871916    0.000000
      9          1           0       -1.194692    4.643409    0.000000
     10          1           0       -1.194692    2.710357    0.000000
 ---------------------------------------------------------------------

 SCF Done:  E(RHF) =  -4.85351979100     A.U. after    9 cycles
 SCF Done:  E(UHF) =  -5.14075881979     a.u. after    4 cycles

 Unable to determine electronic state:  partially filled degenerate orbitals.
 Alpha  occ. eigenvalues --   -0.73280  -0.70312  -0.65604  -0.60382  -0.48038
 Alpha virt. eigenvalues --    0.14747   0.38903   0.46454   0.57529   0.68188
  Beta  occ. eigenvalues --   -0.73280  -0.70312  -0.65604  -0.60382  -0.48038
  Beta virt. eigenvalues --    0.14747   0.38903   0.46454   0.57529   0.68188

 Mulliken charges and spin densities:
               1          2
     1  H   -0.002222   0.001812
     2  H    0.004279  -1.004241
     3  H   -0.000288   0.000303
     4  H   -0.002348   0.002741
     5  H    0.000579   0.000591
     6  H    0.000579  -0.000591
     7  H   -0.002348  -0.002741
     8  H   -0.000288  -0.000303
     9  H    0.004279   1.004241
    10  H   -0.002222  -0.001812
 Sum of Mulliken charges =   0.00000   0.00000

 Dipole moment (field-independent basis, Debye):
    X=             -0.0000    Y=             -0.0000    Z=              0.0000  Tot=              0.0000
 Quadrupole moment (field-independent basis, Debye-Ang):
   XX=            -12.2156   YY=            -16.2341   ZZ=            -13.1854
   XY=              1.0507   XZ=              0.0000   YZ=              0.0000

 Normal termination of Gaussian 09 at Wed Feb 22 12:29:35 2017.
