 Gaussian 09, Revision E.01,
 Gaussian 09:  ES64L-G09RevE.01 30-Nov-2015

 ----------------------------------------------------------------------
 #rhf/gen scf(symm,tight,novaracc,noincfock,fulldiag) stable=opt guess=
 read geom=nocrowd test
 ----------------------------------------------------------------------

 hf stability analysis of h10 triangular lattice, y= 0.6991159421304509
 2
 ----------------------------------------------------------------------
 Symbolic Z-matrix:
 Charge =  0 Multiplicity = 1

                         Standard orientation:
 ---------------------------------------------------------------------
 Center     Atomic      Atomic             Coordinates (Angstroms)
 Number     Number       Type             X           Y           Z
 ---------------------------------------------------------------------
      1          1           0        2.134352    0.183840    0.000000
      2          1           0        2.134352   -0.898176   -0.000000
      3          1           0        1.067176    0.362424    0.000000
      4          1           0        1.067176   -0.719592   -0.000000
      5          1           0       -0.000000    0.541008    0.000000
      6          1           0       -0.000000   -0.541008    0.000000
      7          1           0       -1.067176    0.719592   -0.000000
      8          1           0       -1.067176   -0.362424    0.000000
      9          1           0       -2.134352    0.898176   -0.000000
     10          1           0       -2.134352   -0.183840    0.000000
 ---------------------------------------------------------------------

 SCF Done:  E(RHF) =  -4.87396322927     A.U. after   13 cycles
 SCF Done:  E(UHF) =  -4.95496574541     a.u. after    5 cycles

 Unable to determine electronic state:  partially filled degenerate orbitals.
 Alpha  occ. eigenvalues --   -0.87085  -0.74877  -0.55896  -0.44812  -0.38549
 Alpha virt. eigenvalues --    0.06584   0.20571   0.36156   0.53355   0.87420
  Beta  occ. eigenvalues --   -0.87085  -0.74877  -0.55896  -0.44812  -0.38549
  Beta virt. eigenvalues --    0.06584   0.20571   0.36156   0.53355   0.87420

 Mulliken charges and spin densities:
               1          2
     1  H    0.007567  -0.576097
     2  H    0.045882   0.603396
     3  H   -0.036021   0.546985
     4  H   -0.013483  -0.544759
     5  H   -0.003946  -0.389778
     6  H   -0.003946   0.389778
     7  H   -0.013483   0.544759
     8  H   -0.036021  -0.546985
     9  H    0.045882  -0.603396
    10  H    0.007567   0.576097
 Sum of Mulliken charges =  -0.00000  -0.00000

 Dipole moment (field-independent basis, Debye):
    X=             -0.0000    Y=              0.0000    Z=             -0.0000  Tot=              0.0000
 Quadrupole moment (field-independent basis, Debye-Ang):
   XX=            -13.1619   YY=            -15.2205   ZZ=            -12.7995
   XY=             -1.1428   XZ=             -0.0000   YZ=             -0.0000

 Normal termination of Gaussian 09 at Wed Feb 22 12:36:43 2017.
