 Gaussian 09, Revision E.01,
 Gaussian 09:  ES64L-G09RevE.01 30-Nov-2015

 ----------------------------------------------------------------------
 #rhf/gen scf(symm,tight,novaracc,noincfock,fulldiag) stable=opt guess=
 read geom=nocrowd test
 ----------------------------------------------------------------------

 hf stability analysis of h10 triangular lattice, y= 0.7565274741654608
 4
 ----------------------------------------------------------------------
 Symbolic Z-matrix:
 Charge =  0 Multiplicity = 1

                         Standard orientation:
 ---------------------------------------------------------------------
 Center     Atomic      Atomic             Coordinates (Angstroms)
 Number     Number       Type             X           Y           Z
 ---------------------------------------------------------------------
      1          1           0        2.149099    0.518540    0.000000
      2          1           0        2.149099   -0.556050    0.000000
      3          1           0        1.074549    0.527918    0.000000
      4          1           0        1.074549   -0.546673    0.000000
      5          1           0        0.000000    0.537295    0.000000
      6          1           0       -0.000000   -0.537295    0.000000
      7          1           0       -1.074549    0.546673    0.000000
      8          1           0       -1.074549   -0.527918    0.000000
      9          1           0       -2.149099    0.556050    0.000000
     10          1           0       -2.149099   -0.518540    0.000000
 ---------------------------------------------------------------------

 SCF Done:  E(RHF) =  -4.88663049942     A.U. after   13 cycles
 SCF Done:  E(UHF) =  -4.96212346568     a.u. after    5 cycles

 Unable to determine electronic state:  partially filled degenerate orbitals.
 Alpha  occ. eigenvalues --   -0.87370  -0.74995  -0.55767  -0.45665  -0.39061
 Alpha virt. eigenvalues --    0.07172   0.19834   0.37803   0.52702   0.91683
  Beta  occ. eigenvalues --   -0.87370  -0.74995  -0.55767  -0.45665  -0.39061
  Beta virt. eigenvalues --    0.07172   0.19834   0.37803   0.52702   0.91683

 Mulliken charges and spin densities:
               1          2
     1  H    0.027425   0.595754
     2  H    0.029665  -0.597154
     3  H   -0.028361  -0.557036
     4  H   -0.027298   0.556879
     5  H   -0.001431   0.408267
     6  H   -0.001431  -0.408267
     7  H   -0.027298  -0.556879
     8  H   -0.028361   0.557036
     9  H    0.029665   0.597154
    10  H    0.027425  -0.595754
 Sum of Mulliken charges =  -0.00000   0.00000

 Dipole moment (field-independent basis, Debye):
    X=              0.0000    Y=             -0.0000    Z=              0.0000  Tot=              0.0000
 Quadrupole moment (field-independent basis, Debye-Ang):
   XX=            -12.9492   YY=            -15.5763   ZZ=            -12.7901
   XY=             -0.0642   XZ=              0.0000   YZ=              0.0000

 Normal termination of Gaussian 09 at Wed Feb 22 12:37:44 2017.
