 Gaussian 09, Revision E.01,
 Gaussian 09:  ES64L-G09RevE.01 30-Nov-2015

 ----------------------------------------------------------------------
 #rhf/gen scf(symm,tight,novaracc,noincfock,fulldiag) stable=opt guess=
 read geom=nocrowd test
 ----------------------------------------------------------------------

 ----------------------------------------------------------------------
 hf stability analysis of h10 triangular lattice, y= 1.0587704668665670
 ----------------------------------------------------------------------
 Symbolic Z-matrix:
 Charge =  0 Multiplicity = 1

                         Standard orientation:
 ---------------------------------------------------------------------
 Center     Atomic      Atomic             Coordinates (Angstroms)
 Number     Number       Type             X           Y           Z
 ---------------------------------------------------------------------
      1          1           0        1.939133    1.978643    0.000000
      2          1           0        1.939133    0.787698    0.000000
      3          1           0        0.969567    1.287058    0.000000
      4          1           0        0.969567    0.096113    0.000000
      5          1           0        0.000000    0.595472    0.000000
      6          1           0       -0.000000   -0.595472    0.000000
      7          1           0       -0.969567   -0.096113    0.000000
      8          1           0       -0.969567   -1.287058    0.000000
      9          1           0       -1.939133   -0.787698    0.000000
     10          1           0       -1.939133   -1.978643    0.000000
 ---------------------------------------------------------------------

 SCF Done:  E(RHF) =  -4.68247029881     A.U. after   17 cycles
 SCF Done:  E(UHF) =  -4.88058673181     a.u. after   11 cycles

 Unable to determine electronic state:  partially filled degenerate orbitals.
 Alpha  occ. eigenvalues --   -0.84862  -0.72615  -0.56188  -0.34618  -0.33365
 Alpha virt. eigenvalues --    0.05671   0.18415   0.26405   0.48183   0.57637
  Beta  occ. eigenvalues --   -0.84862  -0.72615  -0.56188  -0.34618  -0.33365
  Beta virt. eigenvalues --    0.05671   0.18415   0.26405   0.48183   0.57637

 Mulliken charges and spin densities:
               1          2
     1  H   -0.057273  -0.429821
     2  H    0.099447   0.420434
     3  H    0.072086   0.255349
     4  H   -0.146558   0.110226
     5  H    0.032297   0.205609
     6  H    0.032297  -0.205609
     7  H   -0.146558  -0.110226
     8  H    0.072086  -0.255349
     9  H    0.099447  -0.420434
    10  H   -0.057273   0.429821
 Sum of Mulliken charges =   0.00000  -0.00000

 Dipole moment (field-independent basis, Debye):
    X=              0.0000    Y=             -0.0000    Z=              0.0000  Tot=              0.0000
 Quadrupole moment (field-independent basis, Debye-Ang):
   XX=            -14.2216   YY=            -15.3711   ZZ=            -12.9591
   XY=             -0.5264   XZ=             -0.0000   YZ=             -0.0000

 Normal termination of Gaussian 09 at Wed Feb 22 12:41:49 2017.
