 Gaussian 09, Revision E.01,
 Gaussian 09:  ES64L-G09RevE.01 30-Nov-2015

 ----------------------------------------------------------------------
 #rhf/gen scf(symm,tight,novaracc,noincfock,fulldiag) stable=opt guess=
 read geom=nocrowd test
 ----------------------------------------------------------------------

 hf stability analysis of h10 triangular lattice, y= 0.8185645993885070
 1
 ----------------------------------------------------------------------
 Symbolic Z-matrix:
 Charge =  0 Multiplicity = 1

                         Standard orientation:
 ---------------------------------------------------------------------
 Center     Atomic      Atomic             Coordinates (Angstroms)
 Number     Number       Type             X           Y           Z
 ---------------------------------------------------------------------
      1          1           0        2.137304    0.859683    0.000000
      2          1           0        2.137304   -0.220838    0.000000
      3          1           0        1.068652    0.699971    0.000000
      4          1           0        1.068652   -0.380549    0.000000
      5          1           0        0.000000    0.540260    0.000000
      6          1           0       -0.000000   -0.540260    0.000000
      7          1           0       -1.068652    0.380549    0.000000
      8          1           0       -1.068652   -0.699971    0.000000
      9          1           0       -2.137304    0.220838    0.000000
     10          1           0       -2.137304   -0.859683    0.000000
 ---------------------------------------------------------------------

 SCF Done:  E(RHF) =  -4.87653360135     A.U. after   13 cycles
 SCF Done:  E(UHF) =  -4.95640257346     a.u. after    5 cycles

 Unable to determine electronic state:  partially filled degenerate orbitals.
 Alpha  occ. eigenvalues --   -0.87142  -0.74900  -0.55872  -0.44985  -0.38649
 Alpha virt. eigenvalues --    0.06693   0.20436   0.36470   0.53237   0.88250
  Beta  occ. eigenvalues --   -0.87142  -0.74900  -0.55872  -0.44985  -0.38649
  Beta virt. eigenvalues --    0.06693   0.20436   0.36470   0.53237   0.88250

 Mulliken charges and spin densities:
               1          2
     1  H    0.044619   0.603338
     2  H    0.009558  -0.579044
     3  H   -0.015505  -0.547174
     4  H   -0.035243   0.549317
     5  H   -0.003428   0.393660
     6  H   -0.003428  -0.393660
     7  H   -0.035243  -0.549317
     8  H   -0.015505   0.547174
     9  H    0.009558   0.579044
    10  H    0.044619  -0.603338
 Sum of Mulliken charges =  -0.00000  -0.00000

 Dipole moment (field-independent basis, Debye):
    X=              0.0000    Y=              0.0000    Z=              0.0000  Tot=              0.0000
 Quadrupole moment (field-independent basis, Debye-Ang):
   XX=            -13.1202   YY=            -15.2892   ZZ=            -12.7975
   XY=              1.0366   XZ=             -0.0000   YZ=              0.0000

 Normal termination of Gaussian 09 at Wed Feb 22 12:38:45 2017.
