 Gaussian 09, Revision E.01,
 Gaussian 09:  ES64L-G09RevE.01 30-Nov-2015

 ----------------------------------------------------------------------
 #rhf/gen scf(symm,tight,novaracc,noincfock,fulldiag) stable=opt guess=
 read geom=nocrowd test
 ----------------------------------------------------------------------

 hf stability analysis of h10 triangular lattice, y= 0.4646099728787273
 0
 ----------------------------------------------------------------------
 Symbolic Z-matrix:
 Charge =  0 Multiplicity = 1

                         Standard orientation:
 ---------------------------------------------------------------------
 Center     Atomic      Atomic             Coordinates (Angstroms)
 Number     Number       Type             X           Y           Z
 ---------------------------------------------------------------------
      1          1           0        1.740749   -1.339167    0.000000
      2          1           0        1.740749   -2.665838    0.000000
      3          1           0        0.870374   -0.337916    0.000000
      4          1           0        0.870374   -1.664587    0.000000
      5          1           0       -0.000000    0.663335    0.000000
      6          1           0       -0.000000   -0.663335   -0.000000
      7          1           0       -0.870374    1.664587    0.000000
      8          1           0       -0.870374    0.337916    0.000000
      9          1           0       -1.740749    2.665838    0.000000
     10          1           0       -1.740749    1.339167    0.000000
 ---------------------------------------------------------------------

 SCF Done:  E(RHF) =  -4.68438176930     A.U. after   15 cycles
 SCF Done:  E(UHF) =  -4.85159250490     a.u. after    8 cycles

 Unable to determine electronic state:  partially filled degenerate orbitals.
 Alpha  occ. eigenvalues --   -0.81430  -0.72663  -0.58564  -0.40310  -0.27782
 Alpha virt. eigenvalues --    0.07883   0.20755   0.25139   0.39123   0.58805
  Beta  occ. eigenvalues --   -0.81430  -0.72663  -0.58564  -0.40310  -0.27782
  Beta virt. eigenvalues --    0.07883   0.20755   0.25139   0.39123   0.58805

 Mulliken charges and spin densities:
               1          2
     1  H   -0.070161  -0.491206
     2  H   -0.096224  -0.742298
     3  H    0.079866   0.266804
     4  H    0.144237   0.321397
     5  H   -0.057718   0.357889
     6  H   -0.057718  -0.357889
     7  H    0.144237  -0.321397
     8  H    0.079866  -0.266804
     9  H   -0.096224   0.742298
    10  H   -0.070161   0.491206
 Sum of Mulliken charges =  -0.00000   0.00000

 Dipole moment (field-independent basis, Debye):
    X=             -0.0000    Y=             -0.0000    Z=             -0.0000  Tot=              0.0000
 Quadrupole moment (field-independent basis, Debye-Ang):
   XX=            -16.8053   YY=            -20.7207   ZZ=            -12.6699
   XY=              6.2699   XZ=              0.0000   YZ=             -0.0000

 Normal termination of Gaussian 09 at Wed Feb 22 12:32:13 2017.
