 Gaussian 09, Revision E.01,
 Gaussian 09:  ES64L-G09RevE.01 30-Nov-2015

 ----------------------------------------------------------------------
 #rhf/gen scf(symm,tight,novaracc,noincfock,fulldiag) stable=opt guess=
 read geom=nocrowd test
 ----------------------------------------------------------------------

 hf stability analysis of h10 triangular lattice, y= 0.7305457695626856
 9
 ----------------------------------------------------------------------
 Symbolic Z-matrix:
 Charge =  0 Multiplicity = 1

                         Standard orientation:
 ---------------------------------------------------------------------
 Center     Atomic      Atomic             Coordinates (Angstroms)
 Number     Number       Type             X           Y           Z
 ---------------------------------------------------------------------
      1          1           0        2.145825    0.369235   -0.000000
      2          1           0        2.145825   -0.706995   -0.000000
      3          1           0        1.072912    0.453675   -0.000000
      4          1           0        1.072912   -0.622555   -0.000000
      5          1           0       -0.000000    0.538115    0.000000
      6          1           0       -0.000000   -0.538115    0.000000
      7          1           0       -1.072912    0.622555   -0.000000
      8          1           0       -1.072912   -0.453675   -0.000000
      9          1           0       -2.145825    0.706995   -0.000000
     10          1           0       -2.145825   -0.369235   -0.000000
 ---------------------------------------------------------------------

 SCF Done:  E(RHF) =  -4.88385555315     A.U. after   13 cycles
 SCF Done:  E(UHF) =  -4.96053915808     a.u. after    5 cycles

 Unable to determine electronic state:  partially filled degenerate orbitals.
 Alpha  occ. eigenvalues --   -0.87306  -0.74968  -0.55798  -0.45478  -0.38945
 Alpha virt. eigenvalues --    0.07032   0.20011   0.37420   0.52862   0.90710
  Beta  occ. eigenvalues --   -0.87306  -0.74968  -0.55798  -0.45478  -0.38945
  Beta virt. eigenvalues --    0.07032   0.20011   0.37420   0.52862   0.90710

 Mulliken charges and spin densities:
               1          2
     1  H    0.018277  -0.588739
     2  H    0.038004   0.601409
     3  H   -0.032058   0.555331
     4  H   -0.022249  -0.553988
     5  H   -0.001974  -0.404354
     6  H   -0.001974   0.404354
     7  H   -0.022249   0.553988
     8  H   -0.032058  -0.555331
     9  H    0.038004  -0.601409
    10  H    0.018277   0.588739
 Sum of Mulliken charges =  -0.00000   0.00000

 Dipole moment (field-independent basis, Debye):
    X=             -0.0000    Y=             -0.0000    Z=             -0.0000  Tot=              0.0000
 Quadrupole moment (field-independent basis, Debye-Ang):
   XX=            -12.9974   YY=            -15.4947   ZZ=            -12.7921
   XY=             -0.5701   XZ=             -0.0000   YZ=             -0.0000

 Normal termination of Gaussian 09 at Wed Feb 22 12:37:17 2017.
