 Gaussian 09, Revision E.01,
 Gaussian 09:  ES64L-G09RevE.01 30-Nov-2015

 ----------------------------------------------------------------------
 #rhf/gen scf(symm,tight,novaracc,noincfock,fulldiag) stable=opt guess=
 read geom=nocrowd test
 ----------------------------------------------------------------------

 ----------------------------------------------------------------------
 hf stability analysis of h10 triangular lattice, y= 1.0311871763068714
 ----------------------------------------------------------------------
 Symbolic Z-matrix:
 Charge =  0 Multiplicity = 1

                         Standard orientation:
 ---------------------------------------------------------------------
 Center     Atomic      Atomic             Coordinates (Angstroms)
 Number     Number       Type             X           Y           Z
 ---------------------------------------------------------------------
      1          1           0        1.968160    1.864828    0.000000
      2          1           0        1.968160    0.691448    0.000000
      3          1           0        0.984080    1.225759    0.000000
      4          1           0        0.984080    0.052379    0.000000
      5          1           0        0.000000    0.586690    0.000000
      6          1           0       -0.000000   -0.586690   -0.000000
      7          1           0       -0.984080   -0.052379    0.000000
      8          1           0       -0.984080   -1.225759   -0.000000
      9          1           0       -1.968160   -0.691448    0.000000
     10          1           0       -1.968160   -1.864828   -0.000000
 ---------------------------------------------------------------------

 SCF Done:  E(RHF) =  -4.70990564072     A.U. after   16 cycles
 SCF Done:  E(UHF) =  -4.88538932037     a.u. after   10 cycles

 Unable to determine electronic state:  partially filled degenerate orbitals.
 Alpha  occ. eigenvalues --   -0.85057  -0.73123  -0.56203  -0.35497  -0.33521
 Alpha virt. eigenvalues --    0.04609   0.19214   0.27086   0.51697   0.57478
  Beta  occ. eigenvalues --   -0.85057  -0.73123  -0.56203  -0.35497  -0.33521
  Beta virt. eigenvalues --    0.04609   0.19214   0.27086   0.51697   0.57478

 Mulliken charges and spin densities:
               1          2
     1  H   -0.046653  -0.477179
     2  H    0.083805   0.429755
     3  H    0.076396   0.303907
     4  H   -0.146408  -0.014920
     5  H    0.032860   0.122057
     6  H    0.032860  -0.122057
     7  H   -0.146408   0.014920
     8  H    0.076396  -0.303907
     9  H    0.083805  -0.429755
    10  H   -0.046653   0.477179
 Sum of Mulliken charges =   0.00000   0.00000

 Dipole moment (field-independent basis, Debye):
    X=             -0.0000    Y=             -0.0000    Z=             -0.0000  Tot=              0.0000
 Quadrupole moment (field-independent basis, Debye-Ang):
   XX=            -14.4385   YY=            -14.9574   ZZ=            -12.9464
   XY=             -0.1761   XZ=              0.0000   YZ=             -0.0000

 Normal termination of Gaussian 09 at Wed Feb 22 12:41:31 2017.
