 Gaussian 09, Revision E.01,
 Gaussian 09:  ES64L-G09RevE.01 30-Nov-2015

 ----------------------------------------------------------------------
 #rhf/gen scf(symm,tight,novaracc,noincfock,fulldiag) stable=opt guess=
 read geom=nocrowd test
 ----------------------------------------------------------------------

 hf stability analysis of h10 triangular lattice, y= 0.8368882343931486
 3
 ----------------------------------------------------------------------
 Symbolic Z-matrix:
 Charge =  0 Multiplicity = 1

                         Standard orientation:
 ---------------------------------------------------------------------
 Center     Atomic      Atomic             Coordinates (Angstroms)
 Number     Number       Type             X           Y           Z
 ---------------------------------------------------------------------
      1          1           0        2.129305    0.956185   -0.000000
      2          1           0        2.129305   -0.128395   -0.000000
      3          1           0        1.064653    0.749237   -0.000000
      4          1           0        1.064653   -0.335342   -0.000000
      5          1           0        0.000000    0.542290   -0.000000
      6          1           0       -0.000000   -0.542290   -0.000000
      7          1           0       -1.064653    0.335342   -0.000000
      8          1           0       -1.064653   -0.749237   -0.000000
      9          1           0       -2.129305    0.128395   -0.000000
     10          1           0       -2.129305   -0.956185   -0.000000
 ---------------------------------------------------------------------

 SCF Done:  E(RHF) =  -4.86952986025     A.U. after   14 cycles
 SCF Done:  E(UHF) =  -4.95250661551     a.u. after    5 cycles

 Unable to determine electronic state:  partially filled degenerate orbitals.
 Alpha  occ. eigenvalues --   -0.86989  -0.74837  -0.55935  -0.44516  -0.38379
 Alpha virt. eigenvalues --    0.06405   0.20788   0.35635   0.53545   0.86028
  Beta  occ. eigenvalues --   -0.86989  -0.74837  -0.55935  -0.44516  -0.38379
  Beta virt. eigenvalues --    0.06405   0.20788   0.35635   0.53545   0.86028

 Mulliken charges and spin densities:
               1          2
     1  H    0.047412   0.603111
     2  H    0.004799  -0.571202
     3  H   -0.010154  -0.540519
     4  H   -0.037211   0.542738
     5  H   -0.004846   0.382926
     6  H   -0.004846  -0.382926
     7  H   -0.037211  -0.542738
     8  H   -0.010154   0.540519
     9  H    0.004799   0.571202
    10  H    0.047412  -0.603111
 Sum of Mulliken charges =  -0.00000   0.00000

 Dipole moment (field-independent basis, Debye):
    X=              0.0000    Y=             -0.0000    Z=             -0.0000  Tot=              0.0000
 Quadrupole moment (field-independent basis, Debye-Ang):
   XX=            -13.2319   YY=            -15.1060   ZZ=            -12.8030
   XY=              1.2916   XZ=              0.0000   YZ=             -0.0000

 Normal termination of Gaussian 09 at Wed Feb 22 12:39:01 2017.
