 Gaussian 09, Revision E.01,
 Gaussian 09:  ES64L-G09RevE.01 30-Nov-2015

 ----------------------------------------------------------------------
 #rhf/gen scf(symm,tight,novaracc,noincfock,fulldiag) stable=opt guess=
 read geom=nocrowd test
 ----------------------------------------------------------------------

 ----------------------------------------------------------------------
 hf stability analysis of h10 triangular lattice, y= 1.9954740303864316
 ----------------------------------------------------------------------
 Symbolic Z-matrix:
 Charge =  0 Multiplicity = 1

                         Standard orientation:
 ---------------------------------------------------------------------
 Center     Atomic      Atomic             Coordinates (Angstroms)
 Number     Number       Type             X           Y           Z
 ---------------------------------------------------------------------
      1          1           0        1.145343    4.874784    0.000000
      2          1           0        1.145343    2.858444    0.000000
      3          1           0        0.572672    2.941477    0.000000
      4          1           0        0.572672    0.925137    0.000000
      5          1           0        0.000000    1.008170    0.000000
      6          1           0       -0.000000   -1.008170    0.000000
      7          1           0       -0.572672   -0.925137    0.000000
      8          1           0       -0.572672   -2.941477    0.000000
      9          1           0       -1.145343   -2.858444    0.000000
     10          1           0       -1.145343   -4.874784    0.000000
 ---------------------------------------------------------------------

 SCF Done:  E(RHF) =  -4.80167751409     A.U. after    8 cycles
 SCF Done:  E(UHF) =  -5.09064551506     a.u. after    4 cycles

 Unable to determine electronic state:  partially filled degenerate orbitals.
 Alpha  occ. eigenvalues --   -0.73206  -0.70653  -0.66695  -0.62480  -0.48644
 Alpha virt. eigenvalues --    0.14296   0.42106   0.49095   0.59207   0.68810
  Beta  occ. eigenvalues --   -0.73206  -0.70653  -0.66695  -0.62480  -0.48644
  Beta virt. eigenvalues --    0.14296   0.42106   0.49095   0.59207   0.68810

 Mulliken charges and spin densities:
               1          2
     1  H    0.004593  -1.004573
     2  H   -0.001884   0.002133
     3  H   -0.002851   0.002596
     4  H   -0.000248   0.000150
     5  H    0.000390  -0.000296
     6  H    0.000390   0.000296
     7  H   -0.000248  -0.000150
     8  H   -0.002851  -0.002596
     9  H   -0.001884  -0.002133
    10  H    0.004593   1.004573
 Sum of Mulliken charges =   0.00000  -0.00000

 Dipole moment (field-independent basis, Debye):
    X=              0.0000    Y=              0.0000    Z=              0.0000  Tot=              0.0000
 Quadrupole moment (field-independent basis, Debye-Ang):
   XX=            -12.2945   YY=            -15.8210   ZZ=            -13.2541
   XY=             -0.8205   XZ=              0.0000   YZ=              0.0000

 Normal termination of Gaussian 09 at Wed Feb 22 12:45:52 2017.
