 Gaussian 09, Revision E.01,
 Gaussian 09:  ES64L-G09RevE.01 30-Nov-2015

 ----------------------------------------------------------------------
 #rhf/gen scf(symm,tight,novaracc,noincfock,fulldiag) stable=opt guess=
 read geom=nocrowd test
 ----------------------------------------------------------------------

 hf stability analysis of h10 triangular lattice, y= 0.5860779187036555
 5
 ----------------------------------------------------------------------
 Symbolic Z-matrix:
 Charge =  0 Multiplicity = 1

                         Standard orientation:
 ---------------------------------------------------------------------
 Center     Atomic      Atomic             Coordinates (Angstroms)
 Number     Number       Type             X           Y           Z
 ---------------------------------------------------------------------
      1          1           0        2.014716   -0.520769    0.000000
      2          1           0        2.014716   -1.667035    0.000000
      3          1           0        1.007358    0.026182    0.000000
      4          1           0        1.007358   -1.120084    0.000000
      5          1           0        0.000000    0.573133    0.000000
      6          1           0       -0.000000   -0.573133    0.000000
      7          1           0       -1.007358    1.120084   -0.000000
      8          1           0       -1.007358   -0.026182    0.000000
      9          1           0       -2.014716    1.667035   -0.000000
     10          1           0       -2.014716    0.520769    0.000000
 ---------------------------------------------------------------------

 SCF Done:  E(RHF) =  -4.75765125477     A.U. after   14 cycles
 SCF Done:  E(UHF) =  -4.89966188065     a.u. after    7 cycles

 Unable to determine electronic state:  partially filled degenerate orbitals.
 Alpha  occ. eigenvalues --   -0.85031  -0.73992  -0.56257  -0.37211  -0.35170
 Alpha virt. eigenvalues --    0.04159   0.21038   0.28296   0.55237   0.61458
  Beta  occ. eigenvalues --   -0.85031  -0.73992  -0.56257  -0.37211  -0.35170
  Beta virt. eigenvalues --    0.04159   0.21038   0.28296   0.55237   0.61458

 Mulliken charges and spin densities:
               1          2
     1  H    0.024368  -0.447383
     2  H    0.006947   0.547569
     3  H   -0.079888   0.321786
     4  H    0.064639  -0.397237
     5  H   -0.016066  -0.129177
     6  H   -0.016066   0.129177
     7  H    0.064639   0.397237
     8  H   -0.079888  -0.321786
     9  H    0.006947  -0.547569
    10  H    0.024368   0.447383
 Sum of Mulliken charges =   0.00000  -0.00000

 Dipole moment (field-independent basis, Debye):
    X=             -0.0000    Y=              0.0000    Z=             -0.0000  Tot=              0.0000
 Quadrupole moment (field-independent basis, Debye-Ang):
   XX=            -14.2497   YY=            -13.8947   ZZ=            -12.9120
   XY=             -1.3069   XZ=              0.0000   YZ=              0.0000

 Normal termination of Gaussian 09 at Wed Feb 22 12:34:35 2017.
