 Gaussian 09, Revision E.01,
 Gaussian 09:  ES64L-G09RevE.01 30-Nov-2015

 ----------------------------------------------------------------------
 #rhf/gen scf(symm,tight,novaracc,noincfock,fulldiag) stable=opt guess=
 read geom=nocrowd test
 ----------------------------------------------------------------------

 hf stability analysis of h10 triangular lattice, y= 0.8406196945607729
 0
 ----------------------------------------------------------------------
 Symbolic Z-matrix:
 Charge =  0 Multiplicity = 1

                         Standard orientation:
 ---------------------------------------------------------------------
 Center     Atomic      Atomic             Coordinates (Angstroms)
 Number     Number       Type             X           Y           Z
 ---------------------------------------------------------------------
      1          1           0        2.127458    0.975597   -0.000000
      2          1           0        2.127458   -0.109924   -0.000000
      3          1           0        1.063729    0.759179   -0.000000
      4          1           0        1.063729   -0.326342   -0.000000
      5          1           0        0.000000    0.542761    0.000000
      6          1           0       -0.000000   -0.542761    0.000000
      7          1           0       -1.063729    0.326342   -0.000000
      8          1           0       -1.063729   -0.759179   -0.000000
      9          1           0       -2.127458    0.109924   -0.000000
     10          1           0       -2.127458   -0.975597   -0.000000
 ---------------------------------------------------------------------

 SCF Done:  E(RHF) =  -4.86789461451     A.U. after   14 cycles
 SCF Done:  E(UHF) =  -4.95160573955     a.u. after    5 cycles

 Unable to determine electronic state:  partially filled degenerate orbitals.
 Alpha  occ. eigenvalues --   -0.86954  -0.74822  -0.55949  -0.44407  -0.38317
 Alpha virt. eigenvalues --    0.06342   0.20864   0.35449   0.53611   0.85527
  Beta  occ. eigenvalues --   -0.86954  -0.74822  -0.55949  -0.44407  -0.38317
  Beta virt. eigenvalues --    0.06342   0.20864   0.35449   0.53611   0.85527

 Mulliken charges and spin densities:
               1          2
     1  H    0.047814   0.602909
     2  H    0.003944  -0.569432
     3  H   -0.008960  -0.538928
     4  H   -0.037619   0.541103
     5  H   -0.005179   0.380348
     6  H   -0.005179  -0.380348
     7  H   -0.037619  -0.541103
     8  H   -0.008960   0.538928
     9  H    0.003944   0.569432
    10  H    0.047814  -0.602909
 Sum of Mulliken charges =  -0.00000   0.00000

 Dipole moment (field-independent basis, Debye):
    X=             -0.0000    Y=             -0.0000    Z=             -0.0000  Tot=              0.0000
 Quadrupole moment (field-independent basis, Debye-Ang):
   XX=            -13.2572   YY=            -15.0651   ZZ=            -12.8043
   XY=              1.3381   XZ=             -0.0000   YZ=              0.0000

 Normal termination of Gaussian 09 at Wed Feb 22 12:39:05 2017.
