 Gaussian 09, Revision E.01,
 Gaussian 09:  ES64L-G09RevE.01 30-Nov-2015

 ----------------------------------------------------------------------
 #rhf/gen scf(symm,tight,novaracc,noincfock,fulldiag) stable=opt guess=
 read geom=nocrowd test
 ----------------------------------------------------------------------

 ----------------------------------------------------------------------
 hf stability analysis of h10 triangular lattice, y= 1.0050639437111659
 ----------------------------------------------------------------------
 Symbolic Z-matrix:
 Charge =  0 Multiplicity = 1

                         Standard orientation:
 ---------------------------------------------------------------------
 Center     Atomic      Atomic             Coordinates (Angstroms)
 Number     Number       Type             X           Y           Z
 ---------------------------------------------------------------------
      1          1           0        1.994917    1.753917   -0.000000
      2          1           0        1.994917    0.596275   -0.000000
      3          1           0        0.997459    1.166369   -0.000000
      4          1           0        0.997459    0.008727   -0.000000
      5          1           0       -0.000000    0.578821    0.000000
      6          1           0       -0.000000   -0.578821    0.000000
      7          1           0       -0.997459   -0.008727   -0.000000
      8          1           0       -0.997459   -1.166369    0.000000
      9          1           0       -1.994917   -0.596275   -0.000000
     10          1           0       -1.994917   -1.753917    0.000000
 ---------------------------------------------------------------------

 SCF Done:  E(RHF) =  -4.73711857651     A.U. after   15 cycles
 SCF Done:  E(UHF) =  -4.89238678200     a.u. after    7 cycles

 Unable to determine electronic state:  partially filled degenerate orbitals.
 Alpha  occ. eigenvalues --   -0.84892  -0.73747  -0.56255  -0.36093  -0.34641
 Alpha virt. eigenvalues --    0.04105   0.20220   0.27844   0.54460   0.58923
  Beta  occ. eigenvalues --   -0.84892  -0.73747  -0.56255  -0.36093  -0.34641
  Beta virt. eigenvalues --    0.04105   0.20220   0.27844   0.54460   0.58923

 Mulliken charges and spin densities:
               1          2
     1  H   -0.011159   0.531769
     2  H    0.042986  -0.434837
     3  H    0.074245  -0.365865
     4  H   -0.104232   0.224063
     5  H   -0.001840   0.042093
     6  H   -0.001840  -0.042093
     7  H   -0.104232  -0.224063
     8  H    0.074245   0.365865
     9  H    0.042986   0.434837
    10  H   -0.011159  -0.531769
 Sum of Mulliken charges =   0.00000   0.00000

 Dipole moment (field-independent basis, Debye):
    X=              0.0000    Y=              0.0000    Z=              0.0000  Tot=              0.0000
 Quadrupole moment (field-independent basis, Debye-Ang):
   XX=            -14.3409   YY=            -14.1159   ZZ=            -12.9318
   XY=              0.8827   XZ=             -0.0000   YZ=              0.0000

 Normal termination of Gaussian 09 at Wed Feb 22 12:41:14 2017.
