 Gaussian 09, Revision E.01,
 Gaussian 09:  ES64L-G09RevE.01 30-Nov-2015

 ----------------------------------------------------------------------
 #rhf/gen scf(symm,tight,novaracc,noincfock,fulldiag) stable=opt guess=
 read geom=nocrowd test
 ----------------------------------------------------------------------

 hf stability analysis of h10 triangular lattice, y= 0.9384058608233425
 4
 ----------------------------------------------------------------------
 Symbolic Z-matrix:
 Charge =  0 Multiplicity = 1

                         Standard orientation:
 ---------------------------------------------------------------------
 Center     Atomic      Atomic             Coordinates (Angstroms)
 Number     Number       Type             X           Y           Z
 ---------------------------------------------------------------------
      1          1           0        2.058086    1.455937    0.000000
      2          1           0        2.058086    0.333826    0.000000
      3          1           0        1.029043    1.008496    0.000000
      4          1           0        1.029043   -0.113615   -0.000000
      5          1           0       -0.000000    0.561055    0.000000
      6          1           0       -0.000000   -0.561055    0.000000
      7          1           0       -1.029043    0.113615    0.000000
      8          1           0       -1.029043   -1.008496    0.000000
      9          1           0       -2.058086   -0.333826    0.000000
     10          1           0       -2.058086   -1.455937    0.000000
 ---------------------------------------------------------------------

 SCF Done:  E(RHF) =  -4.80208038583     A.U. after   15 cycles
 SCF Done:  E(UHF) =  -4.91835754945     a.u. after    7 cycles

 Unable to determine electronic state:  partially filled degenerate orbitals.
 Alpha  occ. eigenvalues --   -0.85689  -0.74316  -0.56229  -0.40067  -0.36234
 Alpha virt. eigenvalues --    0.04678   0.22061   0.30036   0.55162   0.69289
  Beta  occ. eigenvalues --   -0.85689  -0.74316  -0.56229  -0.40067  -0.36234
  Beta virt. eigenvalues --    0.04678   0.22061   0.30036   0.55162   0.69289

 Mulliken charges and spin densities:
               1          2
     1  H    0.033425   0.574904
     2  H    0.003022  -0.495613
     3  H    0.036388  -0.460883
     4  H   -0.055090   0.442855
     5  H   -0.017745   0.252687
     6  H   -0.017745  -0.252687
     7  H   -0.055090  -0.442855
     8  H    0.036388   0.460883
     9  H    0.003022   0.495613
    10  H    0.033425  -0.574904
 Sum of Mulliken charges =   0.00000   0.00000

 Dipole moment (field-independent basis, Debye):
    X=             -0.0000    Y=             -0.0000    Z=              0.0000  Tot=              0.0000
 Quadrupole moment (field-independent basis, Debye-Ang):
   XX=            -14.0096   YY=            -13.9893   ZZ=            -12.8650
   XY=              1.7429   XZ=              0.0000   YZ=             -0.0000

 Normal termination of Gaussian 09 at Wed Feb 22 12:40:26 2017.
