 Gaussian 09, Revision E.01,
 Gaussian 09:  ES64L-G09RevE.01 30-Nov-2015

 ----------------------------------------------------------------------
 #rhf/gen scf(symm,tight,novaracc,noincfock,fulldiag) stable=opt guess=
 read geom=nocrowd test
 ----------------------------------------------------------------------

 hf stability analysis of h10 triangular lattice, y= 0.5129460835266602
 7
 ----------------------------------------------------------------------
 Symbolic Z-matrix:
 Charge =  0 Multiplicity = 1

                         Standard orientation:
 ---------------------------------------------------------------------
 Center     Atomic      Atomic             Coordinates (Angstroms)
 Number     Number       Type             X           Y           Z
 ---------------------------------------------------------------------
      1          1           0        1.867044   -1.004532    0.000000
      2          1           0        1.867044   -2.241461    0.000000
      3          1           0        0.933522   -0.193034    0.000000
      4          1           0        0.933522   -1.429963    0.000000
      5          1           0       -0.000000    0.618464   -0.000000
      6          1           0       -0.000000   -0.618464   -0.000000
      7          1           0       -0.933522    1.429963    0.000000
      8          1           0       -0.933522    0.193034    0.000000
      9          1           0       -1.867044    2.241461    0.000000
     10          1           0       -1.867044    1.004532    0.000000
 ---------------------------------------------------------------------

 SCF Done:  E(RHF) =  -4.64181644829     A.U. after   18 cycles
 SCF Done:  E(UHF) =  -4.86423496893     a.u. after   10 cycles

 Unable to determine electronic state:  partially filled degenerate orbitals.
 Alpha  occ. eigenvalues --   -0.83731  -0.71674  -0.56475  -0.34733  -0.31488
 Alpha virt. eigenvalues --    0.08011   0.16616   0.25341   0.41420   0.59378
  Beta  occ. eigenvalues --   -0.83731  -0.71674  -0.56475  -0.34733  -0.31488
  Beta virt. eigenvalues --    0.08011   0.16616   0.25341   0.41420   0.59378

 Mulliken charges and spin densities:
               1          2
     1  H    0.085568  -0.436043
     2  H   -0.031824   0.460228
     3  H   -0.121629  -0.193459
     4  H    0.057833  -0.230823
     5  H    0.010053   0.282425
     6  H    0.010053  -0.282425
     7  H    0.057833   0.230823
     8  H   -0.121629   0.193459
     9  H   -0.031824  -0.460228
    10  H    0.085568   0.436043
 Sum of Mulliken charges =   0.00000  -0.00000

 Dipole moment (field-independent basis, Debye):
    X=             -0.0000    Y=              0.0000    Z=              0.0000  Tot=              0.0000
 Quadrupole moment (field-independent basis, Debye-Ang):
   XX=            -13.5348   YY=            -14.7630   ZZ=            -12.9898
   XY=             -0.3223   XZ=             -0.0000   YZ=             -0.0000

 Normal termination of Gaussian 09 at Wed Feb 22 12:33:10 2017.
