 Gaussian 09, Revision E.01,
 Gaussian 09:  ES64L-G09RevE.01 30-Nov-2015

 ----------------------------------------------------------------------
 #rhf/gen scf(symm,tight,novaracc,noincfock,fulldiag) stable=opt guess=
 read geom=nocrowd test
 ----------------------------------------------------------------------

 hf stability analysis of h10 triangular lattice, y= 0.4950461160480687
 5
 ----------------------------------------------------------------------
 Symbolic Z-matrix:
 Charge =  0 Multiplicity = 1

                         Standard orientation:
 ---------------------------------------------------------------------
 Center     Atomic      Atomic             Coordinates (Angstroms)
 Number     Number       Type             X           Y           Z
 ---------------------------------------------------------------------
      1          1           0        1.822769   -1.126741    0.000000
      2          1           0        1.822769   -2.393715    0.000000
      3          1           0        0.911385   -0.246627    0.000000
      4          1           0        0.911385   -1.513601    0.000000
      5          1           0        0.000000    0.633487    0.000000
      6          1           0       -0.000000   -0.633487    0.000000
      7          1           0       -0.911385    1.513601    0.000000
      8          1           0       -0.911385    0.246627    0.000000
      9          1           0       -1.822769    2.393715    0.000000
     10          1           0       -1.822769    1.126741    0.000000
 ---------------------------------------------------------------------

 SCF Done:  E(RHF) =  -4.64560222983     A.U. after   15 cycles
 SCF Done:  E(UHF) =  -4.84861459647     a.u. after   25 cycles

 Unable to determine electronic state:  partially filled degenerate orbitals.
 Alpha  occ. eigenvalues --   -0.83010  -0.71045  -0.56726  -0.35812  -0.29421
 Alpha virt. eigenvalues --    0.08656   0.16331   0.23892   0.39281   0.60518
  Beta  occ. eigenvalues --   -0.83010  -0.71045  -0.56726  -0.35812  -0.29421
  Beta virt. eigenvalues --    0.08656   0.16331   0.23892   0.39281   0.60518

 Mulliken charges and spin densities:
               1          2
     1  H    0.071569  -0.453995
     2  H   -0.011014   0.500034
     3  H   -0.108412  -0.213561
     4  H    0.047394  -0.236806
     5  H    0.000464   0.311394
     6  H    0.000464  -0.311394
     7  H    0.047394   0.236806
     8  H   -0.108412   0.213561
     9  H   -0.011014  -0.500034
    10  H    0.071569   0.453995
 Sum of Mulliken charges =   0.00000   0.00000

 Dipole moment (field-independent basis, Debye):
    X=             -0.0000    Y=             -0.0000    Z=              0.0000  Tot=              0.0000
 Quadrupole moment (field-independent basis, Debye-Ang):
   XX=            -13.2213   YY=            -13.9762   ZZ=            -13.0039
   XY=             -1.0229   XZ=              0.0000   YZ=              0.0000

 Normal termination of Gaussian 09 at Wed Feb 22 12:32:49 2017.
