 Gaussian 09, Revision E.01,
 Gaussian 09:  ES64L-G09RevE.01 30-Nov-2015

 ----------------------------------------------------------------------
 #rhf/gen scf(symm,tight,novaracc,noincfock,fulldiag) stable=opt guess=
 read geom=nocrowd test
 ----------------------------------------------------------------------

 ----------------------------------------------------------------------
 hf stability analysis of h10 triangular lattice, y= 1.0101797939139427
 ----------------------------------------------------------------------
 Symbolic Z-matrix:
 Charge =  0 Multiplicity = 1

                         Standard orientation:
 ---------------------------------------------------------------------
 Center     Atomic      Atomic             Coordinates (Angstroms)
 Number     Number       Type             X           Y           Z
 ---------------------------------------------------------------------
      1          1           0        1.989745    1.775885    0.000000
      2          1           0        1.989745    0.615234    0.000000
      3          1           0        0.994873    1.178106    0.000000
      4          1           0        0.994873    0.017454    0.000000
      5          1           0       -0.000000    0.580326    0.000000
      6          1           0       -0.000000   -0.580326   -0.000000
      7          1           0       -0.994873   -0.017454    0.000000
      8          1           0       -0.994873   -1.178106    0.000000
      9          1           0       -1.989745   -0.615234    0.000000
     10          1           0       -1.989745   -1.775885    0.000000
 ---------------------------------------------------------------------

 SCF Done:  E(RHF) =  -4.73178487555     A.U. after   16 cycles
 SCF Done:  E(UHF) =  -4.89072331495     a.u. after    8 cycles

 Unable to determine electronic state:  partially filled degenerate orbitals.
 Alpha  occ. eigenvalues --   -0.84899  -0.73652  -0.56251  -0.35897  -0.34441
 Alpha virt. eigenvalues --    0.04134   0.19996   0.27729   0.54059   0.58466
  Beta  occ. eigenvalues --   -0.84899  -0.73652  -0.56251  -0.35897  -0.34441
  Beta virt. eigenvalues --    0.04134   0.19996   0.27729   0.54059   0.58466

 Mulliken charges and spin densities:
               1          2
     1  H   -0.017408   0.525435
     2  H    0.049899  -0.433542
     3  H    0.075830  -0.356311
     4  H   -0.113148   0.188794
     5  H    0.004827   0.012237
     6  H    0.004827  -0.012237
     7  H   -0.113148  -0.188794
     8  H    0.075830   0.356311
     9  H    0.049899   0.433542
    10  H   -0.017408  -0.525435
 Sum of Mulliken charges =   0.00000   0.00000

 Dipole moment (field-independent basis, Debye):
    X=             -0.0000    Y=             -0.0000    Z=              0.0000  Tot=              0.0000
 Quadrupole moment (field-independent basis, Debye-Ang):
   XX=            -14.3705   YY=            -14.2330   ZZ=            -12.9360
   XY=              0.7134   XZ=              0.0000   YZ=             -0.0000

 Normal termination of Gaussian 09 at Wed Feb 22 12:41:17 2017.
