 Gaussian 09, Revision E.01,
 Gaussian 09:  ES64L-G09RevE.01 30-Nov-2015

 ----------------------------------------------------------------------
 #rhf/gen scf(symm,tight,novaracc,noincfock,fulldiag) stable=opt guess=
 read geom=nocrowd test
 ----------------------------------------------------------------------

 hf stability analysis of h10 triangular lattice, y= 0.2756983987278234
 2
 ----------------------------------------------------------------------
 Symbolic Z-matrix:
 Charge =  0 Multiplicity = 1

                         Standard orientation:
 ---------------------------------------------------------------------
 Center     Atomic      Atomic             Coordinates (Angstroms)
 Number     Number       Type             X           Y           Z
 ---------------------------------------------------------------------
      1          1           0        1.093359   -3.024368    0.000000
      2          1           0        1.093359   -5.136575    0.000000
      3          1           0        0.546680   -0.984132    0.000000
      4          1           0        0.546680   -3.096339    0.000000
      5          1           0        0.000000    1.056104    0.000000
      6          1           0       -0.000000   -1.056104    0.000000
      7          1           0       -0.546680    3.096339    0.000000
      8          1           0       -0.546680    0.984132    0.000000
      9          1           0       -1.093359    5.136575    0.000000
     10          1           0       -1.093359    3.024368    0.000000
 ---------------------------------------------------------------------

 SCF Done:  E(RHF) =  -4.72882220680     A.U. after    9 cycles
 SCF Done:  E(UHF) =  -5.01913468479     a.u. after    4 cycles

 Unable to determine electronic state:  partially filled degenerate orbitals.
 Alpha  occ. eigenvalues --   -0.73223  -0.71096  -0.67888  -0.64621  -0.49110
 Alpha virt. eigenvalues --    0.13894   0.45615   0.51983   0.61060   0.69552
  Beta  occ. eigenvalues --   -0.73223  -0.71096  -0.67888  -0.64621  -0.49110
  Beta virt. eigenvalues --    0.13894   0.45615   0.51983   0.61060   0.69552

 Mulliken charges and spin densities:
               1          2
     1  H   -0.001562   0.002130
     2  H    0.004415  -1.004405
     3  H   -0.000193   0.000070
     4  H   -0.002911   0.002342
     5  H    0.000253   0.000133
     6  H    0.000253  -0.000133
     7  H   -0.002911  -0.002342
     8  H   -0.000193  -0.000070
     9  H    0.004415   1.004405
    10  H   -0.001562  -0.002130
 Sum of Mulliken charges =   0.00000   0.00000

 Dipole moment (field-independent basis, Debye):
    X=             -0.0000    Y=              0.0000    Z=              0.0000  Tot=              0.0000
 Quadrupole moment (field-independent basis, Debye-Ang):
   XX=            -12.3946   YY=            -15.4326   ZZ=            -13.3226
   XY=              0.6239   XZ=             -0.0000   YZ=             -0.0000

 Normal termination of Gaussian 09 at Wed Feb 22 12:29:16 2017.
