 Gaussian 09, Revision E.01,
 Gaussian 09:  ES64L-G09RevE.01 30-Nov-2015

 ----------------------------------------------------------------------
 #rhf/gen scf(symm,tight,novaracc,noincfock,fulldiag) stable=opt guess=
 read geom=nocrowd test
 ----------------------------------------------------------------------

 ----------------------------------------------------------------------
 hf stability analysis of h10 triangular lattice, y= 1.0940617386278098
 ----------------------------------------------------------------------
 Symbolic Z-matrix:
 Charge =  0 Multiplicity = 1

                         Standard orientation:
 ---------------------------------------------------------------------
 Center     Atomic      Atomic             Coordinates (Angstroms)
 Number     Number       Type             X           Y           Z
 ---------------------------------------------------------------------
      1          1           0        1.901240    2.119655    0.000000
      2          1           0        1.901240    0.904973    0.000000
      3          1           0        0.950620    1.363498    0.000000
      4          1           0        0.950620    0.148816    0.000000
      5          1           0        0.000000    0.607341   -0.000000
      6          1           0       -0.000000   -0.607341   -0.000000
      7          1           0       -0.950620   -0.148816    0.000000
      8          1           0       -0.950620   -1.363498    0.000000
      9          1           0       -1.901240   -0.904973    0.000000
     10          1           0       -1.901240   -2.119655    0.000000
 ---------------------------------------------------------------------

 SCF Done:  E(RHF) =  -4.65393910450     A.U. after   18 cycles
 SCF Done:  E(UHF) =  -4.87327876145     a.u. after    8 cycles

 Unable to determine electronic state:  partially filled degenerate orbitals.
 Alpha  occ. eigenvalues --   -0.84292  -0.72125  -0.56307  -0.33988  -0.33017
 Alpha virt. eigenvalues --    0.07018   0.17347   0.25943   0.44162   0.58495
  Beta  occ. eigenvalues --   -0.84292  -0.72125  -0.56307  -0.33988  -0.33017
  Beta virt. eigenvalues --    0.07018   0.17347   0.25943   0.44162   0.58495

 Mulliken charges and spin densities:
               1          2
     1  H   -0.046816  -0.433166
     2  H    0.094947   0.424381
     3  H    0.065372   0.234052
     4  H   -0.133091   0.168027
     5  H    0.019589   0.252797
     6  H    0.019589  -0.252797
     7  H   -0.133091  -0.168027
     8  H    0.065372  -0.234052
     9  H    0.094947  -0.424381
    10  H   -0.046816   0.433166
 Sum of Mulliken charges =   0.00000  -0.00000

 Dipole moment (field-independent basis, Debye):
    X=             -0.0000    Y=             -0.0000    Z=              0.0000  Tot=              0.0000
 Quadrupole moment (field-independent basis, Debye-Ang):
   XX=            -13.8415   YY=            -15.1959   ZZ=            -12.9766
   XY=             -0.1786   XZ=             -0.0000   YZ=             -0.0000

 Normal termination of Gaussian 09 at Wed Feb 22 12:42:10 2017.
