 Gaussian 09, Revision E.01,
 Gaussian 09:  ES64L-G09RevE.01 30-Nov-2015

 ----------------------------------------------------------------------
 #rhf/gen scf(symm,tight,novaracc,noincfock,fulldiag) stable=opt guess=
 read geom=nocrowd test
 ----------------------------------------------------------------------

 ----------------------------------------------------------------------
 hf stability analysis of h10 triangular lattice, y= 1.2106565115415191
 ----------------------------------------------------------------------
 Symbolic Z-matrix:
 Charge =  0 Multiplicity = 1

                         Standard orientation:
 ---------------------------------------------------------------------
 Center     Atomic      Atomic             Coordinates (Angstroms)
 Number     Number       Type             X           Y           Z
 ---------------------------------------------------------------------
      1          1           0        1.774828    2.553869   -0.000000
      2          1           0        1.774828    1.252672   -0.000000
      3          1           0        0.887414    1.602234   -0.000000
      4          1           0        0.887414    0.301037   -0.000000
      5          1           0        0.000000    0.650598   -0.000000
      6          1           0       -0.000000   -0.650598   -0.000000
      7          1           0       -0.887414   -0.301037    0.000000
      8          1           0       -0.887414   -1.602234   -0.000000
      9          1           0       -1.774828   -1.252672    0.000000
     10          1           0       -1.774828   -2.553869   -0.000000
 ---------------------------------------------------------------------

 SCF Done:  E(RHF) =  -4.66348476885     A.U. after   12 cycles
 SCF Done:  E(UHF) =  -4.82946860305     a.u. after    8 cycles

 Unable to determine electronic state:  partially filled degenerate orbitals.
 Alpha  occ. eigenvalues --   -0.82179  -0.72771  -0.57541  -0.37726  -0.27194
 Alpha virt. eigenvalues --    0.06766   0.18092   0.23744   0.37850   0.58564
  Beta  occ. eigenvalues --   -0.82179  -0.72771  -0.57541  -0.37726  -0.27194
  Beta virt. eigenvalues --    0.06766   0.18092   0.23744   0.37850   0.58564

 Mulliken charges and spin densities:
               1          2
     1  H   -0.073476  -0.527449
     2  H   -0.065707  -0.468966
     3  H    0.159102   0.201002
     4  H    0.082263   0.133173
     5  H   -0.102181  -0.323826
     6  H   -0.102181   0.323826
     7  H    0.082263  -0.133173
     8  H    0.159102  -0.201002
     9  H   -0.065707   0.468966
    10  H   -0.073476   0.527449
 Sum of Mulliken charges =  -0.00000  -0.00000

 Dipole moment (field-independent basis, Debye):
    X=             -0.0000    Y=              0.0000    Z=              0.0000  Tot=              0.0000
 Quadrupole moment (field-independent basis, Debye-Ang):
   XX=            -16.5012   YY=            -17.9211   ZZ=            -12.8541
   XY=             -3.8246   XZ=              0.0000   YZ=              0.0000

 Normal termination of Gaussian 09 at Wed Feb 22 12:43:08 2017.
