 Gaussian 09, Revision E.01,
 Gaussian 09:  ES64L-G09RevE.01 30-Nov-2015

 ----------------------------------------------------------------------
 #rhf/gen scf(symm,tight,novaracc,noincfock,fulldiag) stable=opt guess=
 read geom=nocrowd test
 ----------------------------------------------------------------------

 hf stability analysis of h10 triangular lattice, y= 0.5511430676164930
 1
 ----------------------------------------------------------------------
 Symbolic Z-matrix:
 Charge =  0 Multiplicity = 1

                         Standard orientation:
 ---------------------------------------------------------------------
 Center     Atomic      Atomic             Coordinates (Angstroms)
 Number     Number       Type             X           Y           Z
 ---------------------------------------------------------------------
      1          1           0        1.951019   -0.749054    0.000000
      2          1           0        1.951019   -1.932743    0.000000
      3          1           0        0.975510   -0.078604    0.000000
      4          1           0        0.975510   -1.262294    0.000000
      5          1           0        0.000000    0.591845    0.000000
      6          1           0       -0.000000   -0.591845    0.000000
      7          1           0       -0.975510    1.262294    0.000000
      8          1           0       -0.975510    0.078604    0.000000
      9          1           0       -1.951019    1.932743    0.000000
     10          1           0       -1.951019    0.749054    0.000000
 ---------------------------------------------------------------------

 SCF Done:  E(RHF) =  -4.69331518036     A.U. after   15 cycles
 SCF Done:  E(UHF) =  -4.88249236227     a.u. after   11 cycles

 Unable to determine electronic state:  partially filled degenerate orbitals.
 Alpha  occ. eigenvalues --   -0.84993  -0.72791  -0.56179  -0.35039  -0.33312
 Alpha virt. eigenvalues --    0.05229   0.18748   0.26619   0.49604   0.57464
  Beta  occ. eigenvalues --   -0.84993  -0.72791  -0.56179  -0.35039  -0.33312
  Beta virt. eigenvalues --    0.05229   0.18748   0.26619   0.49604   0.57464

 Mulliken charges and spin densities:
               1          2
     1  H    0.096897  -0.423142
     2  H   -0.056588   0.442039
     3  H   -0.149611  -0.074333
     4  H    0.073892  -0.270022
     5  H    0.035411   0.181693
     6  H    0.035411  -0.181693
     7  H    0.073892   0.270022
     8  H   -0.149611   0.074333
     9  H   -0.056588  -0.442039
    10  H    0.096897   0.423142
 Sum of Mulliken charges =   0.00000  -0.00000

 Dipole moment (field-independent basis, Debye):
    X=             -0.0000    Y=              0.0000    Z=             -0.0000  Tot=              0.0000
 Quadrupole moment (field-independent basis, Debye-Ang):
   XX=            -14.3333   YY=            -15.2967   ZZ=            -12.9534
   XY=              0.5025   XZ=             -0.0000   YZ=              0.0000

 Normal termination of Gaussian 09 at Wed Feb 22 12:33:54 2017.
