 Gaussian 09, Revision E.01,
 Gaussian 09:  ES64L-G09RevE.01 30-Nov-2015

 ----------------------------------------------------------------------
 #rhf/gen scf(symm,tight,novaracc,noincfock,fulldiag) stable=opt guess=
 read geom=nocrowd test
 ----------------------------------------------------------------------

 hf stability analysis of h10 triangular lattice, y= 0.7834165171194891
 2
 ----------------------------------------------------------------------
 Symbolic Z-matrix:
 Charge =  0 Multiplicity = 1

                         Standard orientation:
 ---------------------------------------------------------------------
 Center     Atomic      Atomic             Coordinates (Angstroms)
 Number     Number       Type             X           Y           Z
 ---------------------------------------------------------------------
      1          1           0        2.147135    0.669111    0.000000
      2          1           0        2.147135   -0.406462    0.000000
      3          1           0        1.073567    0.603449    0.000000
      4          1           0        1.073567   -0.472125    0.000000
      5          1           0        0.000000    0.537787    0.000000
      6          1           0       -0.000000   -0.537787    0.000000
      7          1           0       -1.073567    0.472125    0.000000
      8          1           0       -1.073567   -0.603449    0.000000
      9          1           0       -2.147135    0.406462    0.000000
     10          1           0       -2.147135   -0.669111    0.000000
 ---------------------------------------------------------------------

 SCF Done:  E(RHF) =  -4.88496828947     A.U. after   13 cycles
 SCF Done:  E(UHF) =  -4.96117337615     a.u. after    5 cycles

 Unable to determine electronic state:  partially filled degenerate orbitals.
 Alpha  occ. eigenvalues --   -0.87332  -0.74979  -0.55786  -0.45553  -0.38991
 Alpha virt. eigenvalues --    0.07087   0.19941   0.37572   0.52799   0.91098
  Beta  occ. eigenvalues --   -0.87332  -0.74979  -0.55786  -0.45553  -0.38991
  Beta virt. eigenvalues --    0.07087   0.19941   0.37572   0.52799   0.91098

 Mulliken charges and spin densities:
               1          2
     1  H    0.036042  -0.600550
     2  H    0.020563   0.590717
     3  H   -0.023648   0.555056
     4  H   -0.031201  -0.556124
     5  H   -0.001756  -0.405932
     6  H   -0.001756   0.405932
     7  H   -0.031201   0.556124
     8  H   -0.023648  -0.555056
     9  H    0.020563  -0.590717
    10  H    0.036042   0.600550
 Sum of Mulliken charges =  -0.00000  -0.00000

 Dipole moment (field-independent basis, Debye):
    X=              0.0000    Y=             -0.0000    Z=              0.0000  Tot=              0.0000
 Quadrupole moment (field-independent basis, Debye-Ang):
   XX=            -12.9782   YY=            -15.5271   ZZ=            -12.7913
   XY=              0.4460   XZ=              0.0000   YZ=             -0.0000

 Normal termination of Gaussian 09 at Wed Feb 22 12:38:11 2017.
