 Gaussian 09, Revision E.01,
 Gaussian 09:  ES64L-G09RevE.01 30-Nov-2015

 ----------------------------------------------------------------------
 #rhf/gen scf(symm,tight,novaracc,noincfock,fulldiag) stable=opt guess=
 read geom=nocrowd test
 ----------------------------------------------------------------------

 hf stability analysis of h10 triangular lattice, y= 0.4068814698559844
 5
 ----------------------------------------------------------------------
 Symbolic Z-matrix:
 Charge =  0 Multiplicity = 1

                         Standard orientation:
 ---------------------------------------------------------------------
 Center     Atomic      Atomic             Coordinates (Angstroms)
 Number     Number       Type             X           Y           Z
 ---------------------------------------------------------------------
      1          1           0        1.564478   -1.765615    0.000000
      2          1           0        1.564478   -3.241762    0.000000
      3          1           0        0.782239   -0.513770    0.000000
      4          1           0        0.782239   -1.989918    0.000000
      5          1           0       -0.000000    0.738074    0.000000
      6          1           0       -0.000000   -0.738074    0.000000
      7          1           0       -0.782239    1.989918   -0.000000
      8          1           0       -0.782239    0.513770   -0.000000
      9          1           0       -1.564478    3.241762   -0.000000
     10          1           0       -1.564478    1.765615   -0.000000
 ---------------------------------------------------------------------

 SCF Done:  E(RHF) =  -4.83449464635     A.U. after   12 cycles
 SCF Done:  E(UHF) =  -5.06625349132     a.u. after    5 cycles

 Unable to determine electronic state:  partially filled degenerate orbitals.
 Alpha  occ. eigenvalues --   -0.76656  -0.70204  -0.59596  -0.46238  -0.34863
 Alpha virt. eigenvalues --    0.16958   0.21280   0.28643   0.45784   0.62998
  Beta  occ. eigenvalues --   -0.76656  -0.70204  -0.59596  -0.46238  -0.34863
  Beta virt. eigenvalues --    0.16958   0.21280   0.28643   0.45784   0.62998

 Mulliken charges and spin densities:
               1          2
     1  H   -0.011783  -0.068853
     2  H   -0.045333  -0.951003
     3  H    0.010044   0.037357
     4  H    0.043370   0.034057
     5  H    0.003703   0.048063
     6  H    0.003703  -0.048063
     7  H    0.043370  -0.034057
     8  H    0.010044  -0.037357
     9  H   -0.045333   0.951003
    10  H   -0.011783   0.068853
 Sum of Mulliken charges =  -0.00000   0.00000

 Dipole moment (field-independent basis, Debye):
    X=             -0.0000    Y=              0.0000    Z=              0.0000  Tot=              0.0000
 Quadrupole moment (field-independent basis, Debye-Ang):
   XX=            -13.4157   YY=            -21.0332   ZZ=            -12.6702
   XY=              5.1015   XZ=             -0.0000   YZ=              0.0000

 Normal termination of Gaussian 09 at Wed Feb 22 12:31:07 2017.
