 Gaussian 09, Revision E.01,
 Gaussian 09:  ES64L-G09RevE.01 30-Nov-2015

 ----------------------------------------------------------------------
 #rhf/gen scf(symm,tight,novaracc,noincfock,fulldiag) stable=opt guess=
 read geom=nocrowd test
 ----------------------------------------------------------------------

 ----------------------------------------------------------------------
 hf stability analysis of h10 triangular lattice, y= 1.2857983717814927
 ----------------------------------------------------------------------
 Symbolic Z-matrix:
 Charge =  0 Multiplicity = 1

                         Standard orientation:
 ---------------------------------------------------------------------
 Center     Atomic      Atomic             Coordinates (Angstroms)
 Number     Number       Type             X           Y           Z
 ---------------------------------------------------------------------
      1          1           0        1.695663    2.812713   -0.000000
      2          1           0        1.695663    1.450767   -0.000000
      3          1           0        0.847831    1.746843   -0.000000
      4          1           0        0.847831    0.384897   -0.000000
      5          1           0        0.000000    0.680973    0.000000
      6          1           0       -0.000000   -0.680973    0.000000
      7          1           0       -0.847831   -0.384897   -0.000000
      8          1           0       -0.847831   -1.746843   -0.000000
      9          1           0       -1.695663   -1.450767   -0.000000
     10          1           0       -1.695663   -2.812713   -0.000000
 ---------------------------------------------------------------------

 SCF Done:  E(RHF) =  -4.72052097576     A.U. after    9 cycles
 SCF Done:  E(UHF) =  -4.90102599311     a.u. after    7 cycles
 SCF Done:  E(UHF) =  -4.90347460547     a.u. after    7 cycles

 Unable to determine electronic state:  partially filled degenerate orbitals.
 Alpha  occ. eigenvalues --   -0.80077  -0.71285  -0.58912  -0.42231  -0.30731
 Alpha virt. eigenvalues --    0.11583   0.22772   0.26923   0.39300   0.60677
  Beta  occ. eigenvalues --   -0.79818  -0.72206  -0.58784  -0.43919  -0.28315
  Beta virt. eigenvalues --    0.10873   0.21352   0.23783   0.43545   0.59829

 Mulliken charges and spin densities:
               1          2
     1  H   -0.081144  -0.913449
     2  H   -0.010670   0.074313
     3  H    0.065392  -0.115234
     4  H    0.038485  -0.428515
     5  H    0.003622   0.403440
     6  H   -0.024214   0.541936
     7  H    0.020677  -0.519183
     8  H    0.098020  -0.306685
     9  H   -0.029303   0.414665
    10  H   -0.080865   0.848715
 Sum of Mulliken charges =  -0.00000  -0.00000

 Dipole moment (field-independent basis, Debye):
    X=              0.0891    Y=             -0.0237    Z=              0.0000  Tot=              0.0922
 Quadrupole moment (field-independent basis, Debye-Ang):
   XX=            -15.2558   YY=            -21.1852   ZZ=            -12.6033
   XY=             -5.9800   XZ=             -0.0000   YZ=              0.0000

 Normal termination of Gaussian 09 at Wed Feb 22 12:43:38 2017.
