 Gaussian 09, Revision E.01,
 Gaussian 09:  ES64L-G09RevE.01 30-Nov-2015

 ----------------------------------------------------------------------
 #rhf/gen scf(symm,tight,novaracc,noincfock,fulldiag) stable=opt guess=
 read geom=nocrowd test
 ----------------------------------------------------------------------

 hf stability analysis of h10 triangular lattice, y= 0.2937440693806230
 9
 ----------------------------------------------------------------------
 Symbolic Z-matrix:
 Charge =  0 Multiplicity = 1

                         Standard orientation:
 ---------------------------------------------------------------------
 Center     Atomic      Atomic             Coordinates (Angstroms)
 Number     Number       Type             X           Y           Z
 ---------------------------------------------------------------------
      1          1           0        1.162070   -2.807302    0.000000
      2          1           0        1.162070   -4.794618    0.000000
      3          1           0        0.581035   -0.906822    0.000000
      4          1           0        0.581035   -2.894138    0.000000
      5          1           0        0.000000    0.993658   -0.000000
      6          1           0       -0.000000   -0.993658   -0.000000
      7          1           0       -0.581035    2.894138    0.000000
      8          1           0       -0.581035    0.906822    0.000000
      9          1           0       -1.162070    4.794618    0.000000
     10          1           0       -1.162070    2.807302    0.000000
 ---------------------------------------------------------------------

 SCF Done:  E(RHF) =  -4.82106300765     A.U. after    9 cycles
 SCF Done:  E(UHF) =  -5.10950331105     a.u. after    4 cycles

 Unable to determine electronic state:  partially filled degenerate orbitals.
 Alpha  occ. eigenvalues --   -0.73222  -0.70529  -0.66320  -0.61774  -0.48459
 Alpha virt. eigenvalues --    0.14441   0.41007   0.48189   0.58630   0.68592
  Beta  occ. eigenvalues --   -0.73222  -0.70529  -0.66320  -0.61774  -0.48459
  Beta virt. eigenvalues --    0.14441   0.41007   0.48189   0.58630   0.68592

 Mulliken charges and spin densities:
               1          2
     1  H   -0.001994   0.002068
     2  H    0.004550  -1.004525
     3  H   -0.000264   0.000191
     4  H   -0.002738   0.002656
     5  H    0.000447   0.000377
     6  H    0.000447  -0.000377
     7  H   -0.002738  -0.002656
     8  H   -0.000264  -0.000191
     9  H    0.004550   1.004525
    10  H   -0.001994  -0.002068
 Sum of Mulliken charges =   0.00000   0.00000

 Dipole moment (field-independent basis, Debye):
    X=             -0.0000    Y=              0.0000    Z=              0.0000  Tot=              0.0000
 Quadrupole moment (field-independent basis, Debye-Ang):
   XX=            -12.2656   YY=            -15.9559   ZZ=            -13.2311
   XY=              0.8934   XZ=             -0.0000   YZ=             -0.0000

 Normal termination of Gaussian 09 at Wed Feb 22 12:29:28 2017.
