 Gaussian 09, Revision E.01,
 Gaussian 09:  ES64L-G09RevE.01 30-Nov-2015

 ----------------------------------------------------------------------
 #rhf/gen scf(symm,tight,novaracc,noincfock,fulldiag) stable=opt guess=
 read geom=nocrowd test
 ----------------------------------------------------------------------

 ----------------------------------------------------------------------
 hf stability analysis of h10 triangular lattice, y= 1.0258511839050852
 ----------------------------------------------------------------------
 Symbolic Z-matrix:
 Charge =  0 Multiplicity = 1

                         Standard orientation:
 ---------------------------------------------------------------------
 Center     Atomic      Atomic             Coordinates (Angstroms)
 Number     Number       Type             X           Y           Z
 ---------------------------------------------------------------------
      1          1           0        1.973692    1.842426    0.000000
      2          1           0        1.973692    0.672334    0.000000
      3          1           0        0.986846    1.213736    0.000000
      4          1           0        0.986846    0.043644    0.000000
      5          1           0        0.000000    0.585046    0.000000
      6          1           0       -0.000000   -0.585046   -0.000000
      7          1           0       -0.986846   -0.043644    0.000000
      8          1           0       -0.986846   -1.213736   -0.000000
      9          1           0       -1.973692   -0.672334    0.000000
     10          1           0       -1.973692   -1.842426   -0.000000
 ---------------------------------------------------------------------

 SCF Done:  E(RHF) =  -4.71543349945     A.U. after   17 cycles
 SCF Done:  E(UHF) =  -4.88650680309     a.u. after    9 cycles

 Unable to determine electronic state:  partially filled degenerate orbitals.
 Alpha  occ. eigenvalues --   -0.85026  -0.73259  -0.56218  -0.35590  -0.33705
 Alpha virt. eigenvalues --    0.04434   0.19380   0.27270   0.52359   0.57605
  Beta  occ. eigenvalues --   -0.85026  -0.73259  -0.56218  -0.35590  -0.33705
  Beta virt. eigenvalues --    0.04434   0.19380   0.27270   0.52359   0.57605

 Mulliken charges and spin densities:
               1          2
     1  H   -0.040136   0.491787
     2  H    0.076037  -0.431450
     3  H    0.077000  -0.318094
     4  H   -0.140923   0.056878
     5  H    0.028021  -0.091933
     6  H    0.028021   0.091933
     7  H   -0.140923  -0.056878
     8  H    0.077000   0.318094
     9  H    0.076037   0.431450
    10  H   -0.040136  -0.491787
 Sum of Mulliken charges =   0.00000   0.00000

 Dipole moment (field-independent basis, Debye):
    X=             -0.0000    Y=             -0.0000    Z=             -0.0000  Tot=              0.0000
 Quadrupole moment (field-independent basis, Debye-Ang):
   XX=            -14.4425   YY=            -14.7737   ZZ=            -12.9445
   XY=              0.0321   XZ=              0.0000   YZ=             -0.0000

 Normal termination of Gaussian 09 at Wed Feb 22 12:41:28 2017.
