 Gaussian 09, Revision E.01,
 Gaussian 09:  ES64L-G09RevE.01 30-Nov-2015

 ----------------------------------------------------------------------
 #rhf/gen scf(symm,tight,novaracc,noincfock,fulldiag) stable=opt guess=
 read geom=nocrowd test
 ----------------------------------------------------------------------

 hf stability analysis of h10 triangular lattice, y= 0.4799368795303601
 3
 ----------------------------------------------------------------------
 Symbolic Z-matrix:
 Charge =  0 Multiplicity = 1

                         Standard orientation:
 ---------------------------------------------------------------------
 Center     Atomic      Atomic             Coordinates (Angstroms)
 Number     Number       Type             X           Y           Z
 ---------------------------------------------------------------------
      1          1           0        1.783080   -1.231386   -0.000000
      2          1           0        1.783080   -2.526562   -0.000000
      3          1           0        0.891540   -0.291899   -0.000000
      4          1           0        0.891540   -1.587075   -0.000000
      5          1           0        0.000000    0.647588    0.000000
      6          1           0       -0.000000   -0.647588    0.000000
      7          1           0       -0.891540    1.587075   -0.000000
      8          1           0       -0.891540    0.291899    0.000000
      9          1           0       -1.783080    2.526562   -0.000000
     10          1           0       -1.783080    1.231386   -0.000000
 ---------------------------------------------------------------------

 SCF Done:  E(RHF) =  -4.65944355974     A.U. after   15 cycles
 SCF Done:  E(UHF) =  -4.82808762150     a.u. after   10 cycles
 SCF Done:  E(UHF) =  -4.84062416176     a.u. after   24 cycles

 Unable to determine electronic state:  partially filled degenerate orbitals.
 Alpha  occ. eigenvalues --   -0.85949  -0.73977  -0.57324  -0.35107  -0.29526
 Alpha virt. eigenvalues --    0.09775   0.20066   0.26114   0.34549   0.54713
  Beta  occ. eigenvalues --   -0.78178  -0.71701  -0.57901  -0.40605  -0.27061
  Beta virt. eigenvalues --    0.06334   0.17373   0.21231   0.41936   0.63760

 Mulliken charges and spin densities:
               1          2
     1  H    0.086180   0.331368
     2  H   -0.045930  -0.677625
     3  H   -0.066231   0.397935
     4  H    0.050070   0.076662
     5  H   -0.086900  -0.105288
     6  H    0.022183   0.469556
     7  H    0.161161   0.270687
     8  H    0.019871   0.307318
     9  H   -0.117580  -0.713709
    10  H   -0.022824  -0.356903
 Sum of Mulliken charges =  -0.00000  -0.00000

 Dipole moment (field-independent basis, Debye):
    X=              0.7028    Y=             -0.8860    Z=             -0.0000  Tot=              1.1308
 Quadrupole moment (field-independent basis, Debye-Ang):
   XX=            -15.1240   YY=            -17.9954   ZZ=            -12.8469
   XY=              3.1040   XZ=              0.0000   YZ=             -0.0000

 Normal termination of Gaussian 09 at Wed Feb 22 12:32:32 2017.
