 Gaussian 09, Revision E.01,
 Gaussian 09:  ES64L-G09RevE.01 30-Nov-2015

 ----------------------------------------------------------------------
 #rhf/gen scf(symm,tight,novaracc,noincfock,fulldiag) stable=opt guess=
 read geom=nocrowd test
 ----------------------------------------------------------------------

 hf stability analysis of h10 triangular lattice, y= 0.9565797678394015
 7
 ----------------------------------------------------------------------
 Symbolic Z-matrix:
 Charge =  0 Multiplicity = 1

                         Standard orientation:
 ---------------------------------------------------------------------
 Center     Atomic      Atomic             Coordinates (Angstroms)
 Number     Number       Type             X           Y           Z
 ---------------------------------------------------------------------
      1          1           0        2.041779    1.539415    0.000000
      2          1           0        2.041779    0.408342    0.000000
      3          1           0        1.020890    1.052476    0.000000
      4          1           0        1.020890   -0.078597    0.000000
      5          1           0       -0.000000    0.565536    0.000000
      6          1           0       -0.000000   -0.565536    0.000000
      7          1           0       -1.020890    0.078597   -0.000000
      8          1           0       -1.020890   -1.052476    0.000000
      9          1           0       -2.041779   -0.408342   -0.000000
     10          1           0       -2.041779   -1.539415    0.000000
 ---------------------------------------------------------------------

 SCF Done:  E(RHF) =  -4.78556591330     A.U. after   15 cycles
 SCF Done:  E(UHF) =  -4.91101864715     a.u. after    7 cycles

 Unable to determine electronic state:  partially filled degenerate orbitals.
 Alpha  occ. eigenvalues --   -0.85418  -0.74203  -0.56246  -0.38991  -0.35812
 Alpha virt. eigenvalues --    0.04437   0.21835   0.29229   0.55312   0.66113
  Beta  occ. eigenvalues --   -0.85418  -0.74203  -0.56246  -0.38991  -0.35812
  Beta virt. eigenvalues --    0.04437   0.21835   0.29229   0.55312   0.66113

 Mulliken charges and spin densities:
               1          2
     1  H    0.024805   0.564941
     2  H    0.009042  -0.476287
     3  H    0.047427  -0.437693
     4  H   -0.061968   0.405690
     5  H   -0.019306   0.212063
     6  H   -0.019306  -0.212063
     7  H   -0.061968  -0.405690
     8  H    0.047427   0.437693
     9  H    0.009042   0.476287
    10  H    0.024805  -0.564941
 Sum of Mulliken charges =   0.00000   0.00000

 Dipole moment (field-independent basis, Debye):
    X=              0.0000    Y=             -0.0000    Z=              0.0000  Tot=              0.0000
 Quadrupole moment (field-independent basis, Debye-Ang):
   XX=            -14.1188   YY=            -13.8908   ZZ=            -12.8824
   XY=              1.6280   XZ=              0.0000   YZ=              0.0000

 Normal termination of Gaussian 09 at Wed Feb 22 12:40:39 2017.
