 Gaussian 09, Revision E.01,
 Gaussian 09:  ES64L-G09RevE.01 30-Nov-2015

 ----------------------------------------------------------------------
 #rhf/gen scf(symm,tight,novaracc,noincfock,fulldiag) stable=opt guess=
 read geom=nocrowd test
 ----------------------------------------------------------------------

 hf stability analysis of h10 triangular lattice, y= 0.9339599336918161
 8
 ----------------------------------------------------------------------
 Symbolic Z-matrix:
 Charge =  0 Multiplicity = 1

                         Standard orientation:
 ---------------------------------------------------------------------
 Center     Atomic      Atomic             Coordinates (Angstroms)
 Number     Number       Type             X           Y           Z
 ---------------------------------------------------------------------
      1          1           0        2.061948    1.435250    0.000000
      2          1           0        2.061948    0.315240    0.000000
      3          1           0        1.030974    0.997627    0.000000
      4          1           0        1.030974   -0.122382    0.000000
      5          1           0       -0.000000    0.560005   -0.000000
      6          1           0       -0.000000   -0.560005   -0.000000
      7          1           0       -1.030974    0.122382    0.000000
      8          1           0       -1.030974   -0.997627    0.000000
      9          1           0       -2.061948   -0.315240    0.000000
     10          1           0       -2.061948   -1.435250    0.000000
 ---------------------------------------------------------------------

 SCF Done:  E(RHF) =  -4.80594437796     A.U. after   15 cycles
 SCF Done:  E(UHF) =  -4.92013631579     a.u. after    7 cycles

 Unable to determine electronic state:  partially filled degenerate orbitals.
 Alpha  occ. eigenvalues --   -0.85756  -0.74343  -0.56223  -0.40320  -0.36338
 Alpha virt. eigenvalues --    0.04743   0.22084   0.30256   0.55114   0.70075
  Beta  occ. eigenvalues --   -0.85756  -0.74343  -0.56223  -0.40320  -0.36338
  Beta virt. eigenvalues --    0.04743   0.22084   0.30256   0.55114   0.70075

 Mulliken charges and spin densities:
               1          2
     1  H    0.035237   0.577161
     2  H    0.001909  -0.500178
     3  H    0.033766  -0.466157
     4  H   -0.053715   0.450641
     5  H   -0.017197   0.261593
     6  H   -0.017197  -0.261593
     7  H   -0.053715  -0.450641
     8  H    0.033766   0.466157
     9  H    0.001909   0.500178
    10  H    0.035237  -0.577161
 Sum of Mulliken charges =   0.00000   0.00000

 Dipole moment (field-independent basis, Debye):
    X=              0.0000    Y=             -0.0000    Z=              0.0000  Tot=              0.0000
 Quadrupole moment (field-independent basis, Debye-Ang):
   XX=            -13.9797   YY=            -14.0222   ZZ=            -12.8610
   XY=              1.7617   XZ=              0.0000   YZ=             -0.0000

 Normal termination of Gaussian 09 at Wed Feb 22 12:40:23 2017.
