 Gaussian 09, Revision E.01,
 Gaussian 09:  ES64L-G09RevE.01 30-Nov-2015

 ----------------------------------------------------------------------
 #rhf/gen scf(symm,tight,novaracc,noincfock,fulldiag) stable=opt guess=
 read geom=nocrowd test
 ----------------------------------------------------------------------

 hf stability analysis of h10 triangular lattice, y= 0.6358183901871248
 3
 ----------------------------------------------------------------------
 Symbolic Z-matrix:
 Charge =  0 Multiplicity = 1

                         Standard orientation:
 ---------------------------------------------------------------------
 Center     Atomic      Atomic             Coordinates (Angstroms)
 Number     Number       Type             X           Y           Z
 ---------------------------------------------------------------------
      1          1           0        2.083328   -0.204012    0.000000
      2          1           0        2.083328   -1.312527    0.000000
      3          1           0        1.041664    0.175123    0.000000
      4          1           0        1.041664   -0.933392    0.000000
      5          1           0        0.000000    0.554258   -0.000000
      6          1           0       -0.000000   -0.554258   -0.000000
      7          1           0       -1.041664    0.933392    0.000000
      8          1           0       -1.041664   -0.175123   -0.000000
      9          1           0       -2.083328    1.312527    0.000000
     10          1           0       -2.083328    0.204012    0.000000
 ---------------------------------------------------------------------

 SCF Done:  E(RHF) =  -4.82695195355     A.U. after   13 cycles
 SCF Done:  E(UHF) =  -4.93019998263     a.u. after    6 cycles

 Unable to determine electronic state:  partially filled degenerate orbitals.
 Alpha  occ. eigenvalues --   -0.86134  -0.74492  -0.56172  -0.41698  -0.36940
 Alpha virt. eigenvalues --    0.05153   0.22008   0.31654   0.54771   0.74664
  Beta  occ. eigenvalues --   -0.86134  -0.74492  -0.56172  -0.41698  -0.36940
  Beta virt. eigenvalues --    0.05153   0.22008   0.31654   0.54771   0.74664

 Mulliken charges and spin densities:
               1          2
     1  H   -0.002052  -0.524676
     2  H    0.043509   0.588551
     3  H   -0.047333   0.488028
     4  H    0.019411  -0.493494
     5  H   -0.013534  -0.306685
     6  H   -0.013534   0.306685
     7  H    0.019411   0.493494
     8  H   -0.047333  -0.488028
     9  H    0.043509  -0.588551
    10  H   -0.002052   0.524676
 Sum of Mulliken charges =  -0.00000  -0.00000

 Dipole moment (field-independent basis, Debye):
    X=              0.0000    Y=             -0.0000    Z=              0.0000  Tot=              0.0000
 Quadrupole moment (field-independent basis, Debye-Ang):
   XX=            -13.7863   YY=            -14.2666   ZZ=            -12.8402
   XY=             -1.7987   XZ=             -0.0000   YZ=             -0.0000

 Normal termination of Gaussian 09 at Wed Feb 22 12:35:32 2017.
