 Gaussian 09, Revision E.01,
 Gaussian 09:  ES64L-G09RevE.01 30-Nov-2015

 ----------------------------------------------------------------------
 #rhf/gen scf(symm,tight,novaracc,noincfock,fulldiag) stable=opt guess=
 read geom=nocrowd test
 ----------------------------------------------------------------------

 hf stability analysis of h10 triangular lattice, y= 0.6837609579800398
 9
 ----------------------------------------------------------------------
 Symbolic Z-matrix:
 Charge =  0 Multiplicity = 1

                         Standard orientation:
 ---------------------------------------------------------------------
 Center     Atomic      Atomic             Coordinates (Angstroms)
 Number     Number       Type             X           Y           Z
 ---------------------------------------------------------------------
      1          1           0        2.125528    0.091458    0.000000
      2          1           0        2.125528   -0.995048    0.000000
      3          1           0        1.062764    0.317356    0.000000
      4          1           0        1.062764   -0.769151    0.000000
      5          1           0       -0.000000    0.543253    0.000000
      6          1           0       -0.000000   -0.543253    0.000000
      7          1           0       -1.062764    0.769151    0.000000
      8          1           0       -1.062764   -0.317356    0.000000
      9          1           0       -2.125528    0.995048    0.000000
     10          1           0       -2.125528   -0.091458    0.000000
 ---------------------------------------------------------------------

 SCF Done:  E(RHF) =  -4.86617912344     A.U. after   13 cycles
 SCF Done:  E(UHF) =  -4.95066426345     a.u. after    5 cycles

 Unable to determine electronic state:  partially filled degenerate orbitals.
 Alpha  occ. eigenvalues --   -0.86917  -0.74807  -0.55962  -0.44292  -0.38253
 Alpha virt. eigenvalues --    0.06278   0.20940   0.35257   0.53678   0.85007
  Beta  occ. eigenvalues --   -0.86917  -0.74807  -0.55962  -0.44292  -0.38253
  Beta virt. eigenvalues --    0.06278   0.20940   0.35257   0.53678   0.85007

 Mulliken charges and spin densities:
               1          2
     1  H    0.003127  -0.567588
     2  H    0.048159   0.602649
     3  H   -0.038035   0.539347
     4  H   -0.007721  -0.537242
     5  H   -0.005531  -0.377615
     6  H   -0.005531   0.377615
     7  H   -0.007721   0.537242
     8  H   -0.038035  -0.539347
     9  H    0.048159  -0.602649
    10  H    0.003127   0.567588
 Sum of Mulliken charges =  -0.00000   0.00000

 Dipole moment (field-independent basis, Debye):
    X=              0.0000    Y=             -0.0000    Z=              0.0000  Tot=              0.0000
 Quadrupole moment (field-independent basis, Debye-Ang):
   XX=            -13.2833   YY=            -15.0230   ZZ=            -12.8056
   XY=             -1.3830   XZ=              0.0000   YZ=              0.0000

 Normal termination of Gaussian 09 at Wed Feb 22 12:36:26 2017.
