 Gaussian 09, Revision E.01,
 Gaussian 09:  ES64L-G09RevE.01 30-Nov-2015

 ----------------------------------------------------------------------
 #rhf/gen scf(symm,tight,novaracc,noincfock,fulldiag) stable=opt guess=
 read geom=nocrowd test
 ----------------------------------------------------------------------

 hf stability analysis of h10 triangular lattice, y= 0.8713519307064939
 7
 ----------------------------------------------------------------------
 Symbolic Z-matrix:
 Charge =  0 Multiplicity = 1

                         Standard orientation:
 ---------------------------------------------------------------------
 Center     Atomic      Atomic             Coordinates (Angstroms)
 Number     Number       Type             X           Y           Z
 ---------------------------------------------------------------------
      1          1           0        2.109696    1.132401    0.000000
      2          1           0        2.109696    0.037740    0.000000
      3          1           0        1.054848    0.839866    0.000000
      4          1           0        1.054848   -0.254795    0.000000
      5          1           0        0.000000    0.547330    0.000000
      6          1           0       -0.000000   -0.547330    0.000000
      7          1           0       -1.054848    0.254795    0.000000
      8          1           0       -1.054848   -0.839866    0.000000
      9          1           0       -2.109696   -0.037740    0.000000
     10          1           0       -2.109696   -1.132401    0.000000
 ---------------------------------------------------------------------

 SCF Done:  E(RHF) =  -4.85183960787     A.U. after   15 cycles
 SCF Done:  E(UHF) =  -4.94294271560     a.u. after    5 cycles

 Unable to determine electronic state:  partially filled degenerate orbitals.
 Alpha  occ. eigenvalues --   -0.86619  -0.74686  -0.56060  -0.43339  -0.37741
 Alpha virt. eigenvalues --    0.05798   0.21475   0.33777   0.54164   0.80908
  Beta  occ. eigenvalues --   -0.86619  -0.74686  -0.56060  -0.43339  -0.37741
  Beta virt. eigenvalues --    0.05798   0.21475   0.33777   0.54164   0.80908

 Mulliken charges and spin densities:
               1          2
     1  H    0.048731   0.599017
     2  H   -0.001262  -0.552266
     3  H    0.002329  -0.522418
     4  H   -0.041306   0.523110
     5  H   -0.008493   0.353579
     6  H   -0.008493  -0.353579
     7  H   -0.041306  -0.523110
     8  H    0.002329   0.522418
     9  H   -0.001262   0.552266
    10  H    0.048731  -0.599017
 Sum of Mulliken charges =  -0.00000  -0.00000

 Dipole moment (field-independent basis, Debye):
    X=             -0.0000    Y=             -0.0000    Z=              0.0000  Tot=              0.0000
 Quadrupole moment (field-independent basis, Debye-Ang):
   XX=            -13.4885   YY=            -14.7006   ZZ=            -12.8176
   XY=              1.6424   XZ=              0.0000   YZ=             -0.0000

 Normal termination of Gaussian 09 at Wed Feb 22 12:39:32 2017.
