 Gaussian 09, Revision E.01,
 Gaussian 09:  ES64L-G09RevE.01 30-Nov-2015

 ----------------------------------------------------------------------
 #uhf/gen scf(tight,novaracc,noincfock,fulldiag, ) stable(crhf) guess=(
 read,mix) geom=nocrowd test
 ----------------------------------------------------------------------

 hf stability analysis of h10 triangular lattice, y= 0.4890258879954954
 6 alpha= 22.500000000000000
 ----------------------------------------------------------------------
 Symbolic Z-matrix:
 Charge =  0 Multiplicity = 1

                         Standard orientation:
 ---------------------------------------------------------------------
 Center     Atomic      Atomic             Coordinates (Angstroms)
 Number     Number       Type             X           Y           Z
 ---------------------------------------------------------------------
      1          1           0        1.807204   -1.168261    0.000000
      2          1           0        1.807204   -2.446147    0.000000
      3          1           0        0.903602   -0.264659    0.000000
      4          1           0        0.903602   -1.542545    0.000000
      5          1           0        0.000000    0.638943    0.000000
      6          1           0       -0.000000   -0.638943   -0.000000
      7          1           0       -0.903602    1.542545    0.000000
      8          1           0       -0.903602    0.264659    0.000000
      9          1           0       -1.807204    2.446147    0.000000
     10          1           0       -1.807204    1.168261    0.000000
 ---------------------------------------------------------------------

 SCF Done:  E(UHF) =  -4.81123332362     A.U. after   28 cycles
 E2 =    -0.8750385719D-01 EUMP2 =    -0.48987371808055D+01

 Unable to determine electronic state:  partially filled degenerate orbitals.
 Alpha  occ. eigenvalues --   -0.80885  -0.72685  -0.57388  -0.37111  -0.24255
 Alpha virt. eigenvalues --    0.04337   0.16970   0.24275   0.38676   0.61146
  Beta  occ. eigenvalues --   -0.81148  -0.73004  -0.56780  -0.38262  -0.23522
  Beta virt. eigenvalues --    0.08045   0.11303   0.25172   0.40746   0.60015

 Mulliken charges and spin densities:
               1          2
     1  H    0.079243   0.435458
     2  H    0.030212  -0.706233
     3  H    0.007876  -0.222829
     4  H    0.026901  -0.108471
     5  H   -0.175634   0.030969
     6  H   -0.029807   0.352299
     7  H    0.123941  -0.180725
     8  H   -0.048987  -0.298729
     9  H   -0.038494   0.653264
    10  H    0.024747   0.044997
 Sum of Mulliken charges =  -0.00000  -0.00000

 Dipole moment (field-independent basis, Debye):
    X=              0.8951    Y=             -0.9139    Z=              0.0000  Tot=              1.2792
 Quadrupole moment (field-independent basis, Debye-Ang):
   XX=            -12.6441   YY=            -13.5015   ZZ=            -13.0106
   XY=             -1.6411   XZ=              0.0000   YZ=             -0.0000

 Normal termination of Gaussian 09 at Tue Feb 28 16:33:31 2017.
