 Gaussian 09, Revision E.01,
 Gaussian 09:  ES64L-G09RevE.01 30-Nov-2015

 ----------------------------------------------------------------------
 #t rhf/gen scf(tight,novaracc,noincfock) stable(crhf) geom=nocrowd tes
 t
 ----------------------------------------------------------------------
 ---------------------------------------------------------------------
 scf stability calculation for a triangular configuration of 8 H atoms
 ---------------------------------------------------------------------
 Symbolic Z-matrix:
 Charge =  0 Multiplicity = 1

                         Standard orientation:
 ---------------------------------------------------------------------
 Center     Atomic      Atomic             Coordinates (Angstroms)
 Number     Number       Type             X           Y           Z
 ---------------------------------------------------------------------
      1          1           0        5.980000   -0.193093    0.000000
      2          1           0        2.990000    0.000000    0.000000
      3          1           0        2.990000   -0.386186   -0.000000
      4          1           0        0.000000    0.193093    0.000000
      5          1           0       -0.000000   -0.193093    0.000000
      6          1           0       -2.990000    0.386186   -0.000000
      7          1           0       -2.990000    0.000000    0.000000
      8          1           0       -5.980000    0.193093   -0.000000
 ---------------------------------------------------------------------

 SCF Done:  E(RHF) =  -2.95423453345     A.U. after    5 cycles
 E2 =    -0.9742707942D+00 EUMP2 =    -0.39285053276062D+01

 The electronic state is 1-AG.
 Alpha  occ. eigenvalues --   -0.75833  -0.75624  -0.75437  -0.20878
 Alpha virt. eigenvalues --   -0.16456   0.71157   0.74426   0.77919

 Mulliken charges:
               1
     1  H    0.000582
     2  H   -0.000413
     3  H   -0.000167
     4  H   -0.000001
     5  H   -0.000001
     6  H   -0.000167
     7  H   -0.000413
     8  H    0.000582
 Sum of Mulliken charges =   0.00000

 Dipole moment (field-independent basis, Debye):
    X=              0.0000    Y=              0.0000    Z=              0.0000  Tot=              0.0000

 Test job not archived.
 1\1\GINC-SULU\Stability\RHF\Gen\H8\LCJ1\09-Feb-2017\0\\#t rhf/gen scf(
 tight,novaracc,noincfock) stable(crhf) geom=nocrowd test\\scf stabilit
 y calculation for a triangular configuration of 8 H atoms\\0,1\H,0,0.1
 93093,0.,5.98\H,0,0.,0.,2.99\H,0,0.386186,0.,2.99\H,0,-0.193093,0.,0.\
 H,0,0.193093,0.,0.\H,0,-0.386186,0.,-2.99\H,0,0.,0.,-2.99\H,0,-0.19309
 3,0.,-5.98\\Version=ES64L-G09RevE.01\State=1-AG\HF=-2.9542345\MP2=-3.9
 285053\RMSD=2.840e-10\Dipole=0.,0.,0.\Quadrupole=0.2739382,-0.0313772,
 -0.242561,0.,-0.0081074,0.\PG=C02H [SGH(H8)]\\@

 Normal termination of Gaussian 09 at Thu Feb  9 11:14:04 2017.
