 Gaussian 09, Revision E.01,
 Gaussian 09:  ES64L-G09RevE.01 30-Nov-2015

 --------------------
 #T RHF/6-31G(d) Test
 --------------------
 ----------------------
 propene single point E
 ----------------------
 Symbolic Z-matrix:
 Charge =  0 Multiplicity = 1

                         Standard orientation:
 ---------------------------------------------------------------------
 Center     Atomic      Atomic             Coordinates (Angstroms)
 Number     Number       Type             X           Y           Z
 ---------------------------------------------------------------------
      1          6           0        1.273484    0.102537    0.000000
      2          6           0        0.000000    0.519477   -0.000000
      3          6           0       -1.131858   -0.495067   -0.000000
      4          1           0        1.497717   -0.964149    0.000000
      5          1           0        2.085145    0.830072    0.000000
      6          1           0       -0.224233    1.586163   -0.000000
      7          1           0       -2.088600    0.027183   -0.000000
      8          1           0       -1.059894   -1.120475    0.889823
      9          1           0       -1.059894   -1.120475   -0.889823
 ---------------------------------------------------------------------

 SCF Done:  E(RHF) =  -117.065325886     A.U. after   12 cycles

 The electronic state is 1-A'.
 Alpha  occ. eigenvalues --  -11.23171 -11.21904 -11.21620  -1.05640  -0.92333
 Alpha  occ. eigenvalues --   -0.75002  -0.63141  -0.57496  -0.56896  -0.51641
 Alpha  occ. eigenvalues --   -0.48609  -0.34957
 Alpha virt. eigenvalues --    0.17747   0.25337   0.27393   0.29906   0.33980
 Alpha virt. eigenvalues --    0.34815   0.35324   0.44394   0.50292   0.69061
 Alpha virt. eigenvalues --    0.74534   0.76988   0.80883   0.83442   0.90358

 Mulliken charges:
               1
     1  C   -0.388995
     2  C   -0.155195
     3  C   -0.506839
     4  H    0.169628
     5  H    0.172873
     6  H    0.183489
     7  H    0.165582
     8  H    0.179728
     9  H    0.179728
 Sum of Mulliken charges =   0.00000

 Dipole moment (field-independent basis, Debye):
    X=             -0.3076    Y=             -0.0360    Z=             -0.0000  Tot=              0.3097

 Test job not archived.
 1\1\GINC-SULU\SP\RHF\6-31G(d)\C3H6\LCJ1\22-Nov-2016\0\\#T RHF/6-31G(d)
  Test\\propene single point E\\0,1\C\C,1,1.34\C,2,1.52,1,120.\H,1,1.09
 ,2,120.,3,0.,0\H,1,1.09,2,120.,3,180.,0\H,2,1.09,1,120.,4,180.,0\H,3,1
 .09,2,109.5,1,180.,0\H,3,1.09,2,109.5,1,60.,0\H,3,1.09,2,109.5,1,-60.,
 0\\Version=ES64L-G09RevE.01\State=1-A'\HF=-117.0653259\RMSD=2.735e-09\
 Dipole=0.0511183,0.,0.1106152\Quadrupole=0.7132265,-1.30982,0.5965935,
 0.,-0.3444705,0.\PG=CS [SG(C3H4),X(H2)]\\@

 Normal termination of Gaussian 09 at Tue Nov 22 14:39:57 2016.
